LAMMPS (16 Mar 2018)
Reading data file ...
  orthogonal box = (-4.71805 -4.71805 -4.71805) to (4.71805 4.71805 4.71805)
  2 by 2 by 4 MPI processor grid
  reading atoms ...
  1000 atoms
Reading potential file /home/fs01/ajm529/lammps-16Mar18/potentials/sw_potentials/AG/eps2.23.sw with DATE: 2008-01-29
Neighbor list info ...
  update every 1 steps, delay 0 steps, check no
  max neighbors/atom: 2000, page size: 100000
  master list distance cutoff = 3.836
  ghost atom cutoff = 3.836
  binsize = 1.918, bins = 5 5 5
  1 neighbor lists, perpetual/occasional/extra = 1 0 0
  (1) pair sw, perpetual
      attributes: full, newton on
      pair build: full/bin/atomonly
      stencil: full/bin/3d
      bin: standard
Setting up Verlet run ...
  Unit style    : real
  Current step  : 0
  Time step     : 1
Per MPI rank memory allocation (min/avg/max) = 3.518 | 3.585 | 4.577 Mbytes
Step Temp E_pair E_mol TotEng Press Volume Lx Ly Lz S/CPU 
       0          300   -10139.266            0   -9245.9168   -5563.3927    840.18766    9.4360906    9.4360906    9.4360906            0 
     100     318.0988   -10197.135            0   -9249.8907   -31345.589    838.86965    9.4311538    9.4311538    9.4311538    62.871077 
     200    326.35824   -10233.129            0   -9261.2902   -31093.365    834.53518     9.414882     9.414882     9.414882    72.384376 
     300    327.45327   -10254.605            0   -9279.5055   -32606.163    827.64682    9.3889066    9.3889066    9.3889066     57.85461 
     400    325.99769   -10275.651            0   -9304.8852   -35510.879    818.46717    9.3540658    9.3540658    9.3540658    69.623385 
     500    327.36843   -10300.091            0    -9325.244   -12918.389      808.303    9.3151831    9.3151831    9.3151831    60.681197 
     600    315.46883   -10278.852            0   -9339.4395   -4344.1155      798.809    9.2785686    9.2785686    9.2785686    69.037084 
     700     326.0581   -10325.475            0   -9354.5301   -1316.1576    790.77085    9.2473412    9.2473412    9.2473412    66.335336 
     800    330.50859   -10353.167            0   -9368.9691     10456.26    784.44734     9.222626     9.222626     9.222626    58.964825 
     900    328.77323   -10363.666            0   -9384.6354     17678.74     780.4968     9.207118     9.207118     9.207118    55.734586 
    1000    331.51906   -10391.695            0   -9404.4882    20823.596    778.62871    9.1997665    9.1997665    9.1997665     65.65008 
Loop time of 15.7542 on 16 procs for 1000 steps with 1000 atoms

Performance: 5.484 ns/day, 4.376 hours/ns, 63.475 timesteps/s
94.7% CPU use with 16 MPI tasks x no OpenMP threads

MPI task timing breakdown:
Section |  min time  |  avg time  |  max time  |%varavg| %total
---------------------------------------------------------------
Pair    | 1.3419     | 1.497      | 1.7146     |   7.6 |  9.50
Neigh   | 0.60497    | 0.63666    | 0.72274    |   3.7 |  4.04
Comm    | 0.72983    | 1.0338     | 1.2168     |  11.9 |  6.56
Output  | 8.2766     | 8.547      | 12.547     |  35.3 | 54.25
Modify  | 0.031035   | 4.0312     | 4.3021     |  51.4 | 25.59
Other   |            | 0.008516   |            |       |  0.05

Nlocal:    62.5 ave 67 max 58 min
Histogram: 1 2 3 1 1 1 2 2 1 2
Nghost:    1878.56 ave 1889 max 1860 min
Histogram: 1 0 0 0 3 2 4 1 4 1
Neighs:    0 ave 0 max 0 min
Histogram: 16 0 0 0 0 0 0 0 0 0
FullNghs:  18962.1 ave 20476 max 17668 min
Histogram: 3 3 1 0 2 0 2 2 1 2

Total # of neighbors = 303394
Ave neighs/atom = 303.394
Neighbor list builds = 1000
Dangerous builds not checked
Setting up Verlet run ...
  Unit style    : real
  Current step  : 1000
  Time step     : 1
Per MPI rank memory allocation (min/avg/max) = 3.768 | 4.376 | 4.58 Mbytes
Step Temp E_pair E_mol TotEng Press Volume Lx Ly Lz S/CPU 
    1000    331.51906   -10391.695            0   -9404.4882    20823.596    778.62871    9.1997665    9.1997665    9.1997665            0 
    1100    318.72977   -10373.707            0   -9424.5843    6804.5662    778.69068    9.2000105    9.2000105    9.2000105    59.916808 
    1200    323.43833   -10407.626            0   -9444.4816    27663.918    779.73196    9.2041095    9.2041095    9.2041095    71.539715 
    1300      308.551   -10381.193            0   -9462.3811    9017.0016    781.20808     9.209914     9.209914     9.209914    58.346427 
    1400    306.68029   -10395.256            0   -9482.0147    16885.087    783.08335    9.2172775    9.2172775    9.2172775    60.125381 
    1500    307.42359   -10414.342            0   -9498.8866    930.29528    785.59692     9.227129     9.227129     9.227129    72.479552 
    1600    312.54309   -10444.424            0   -9513.7236   -3991.2947    788.41251    9.2381392    9.2381392    9.2381392    71.091238 
    1700    319.07549   -10478.509            0   -9528.3562   -185.10104    791.03689    9.2483782    9.2483782    9.2483782    52.450364 
    1800    299.98167   -10433.544            0   -9540.2496   -10806.041    793.36551    9.2574442    9.2574442    9.2574442    66.186073 
    1900    301.51793   -10449.173            0   -9551.3044   -15070.598     795.1997    9.2645729    9.2645729    9.2645729    64.775188 
    2000     293.0487   -10434.512            0   -9561.8626   -20879.588    795.93119    9.2674128    9.2674128    9.2674128    70.227051 
Loop time of 15.6155 on 16 procs for 1000 steps with 1000 atoms

Performance: 5.533 ns/day, 4.338 hours/ns, 64.039 timesteps/s
94.7% CPU use with 16 MPI tasks x no OpenMP threads

MPI task timing breakdown:
Section |  min time  |  avg time  |  max time  |%varavg| %total
---------------------------------------------------------------
Pair    | 1.4614     | 1.559      | 1.8618     |   7.7 |  9.98
Neigh   | 0.60331    | 0.63764    | 0.72429    |   3.9 |  4.08
Comm    | 0.67       | 1.0593     | 1.18       |  12.1 |  6.78
Output  | 8.6759     | 8.9071     | 12.32      |  29.5 | 57.04
Modify  | 0.030182   | 3.444      | 3.6755     |  47.5 | 22.05
Other   |            | 0.008573   |            |       |  0.05

Nlocal:    62.5 ave 72 max 54 min
Histogram: 1 1 2 4 1 2 2 1 0 2
Nghost:    1844.88 ave 1858 max 1829 min
Histogram: 1 1 2 1 2 1 3 1 2 2
Neighs:    0 ave 0 max 0 min
Histogram: 16 0 0 0 0 0 0 0 0 0
FullNghs:  18557.9 ave 21703 max 15967 min
Histogram: 1 1 2 4 3 2 1 0 0 2

Total # of neighbors = 296926
Ave neighs/atom = 296.926
Neighbor list builds = 1000
Dangerous builds not checked
Setting up Verlet run ...
  Unit style    : real
  Current step  : 2000
  Time step     : 1
Per MPI rank memory allocation (min/avg/max) = 3.768 | 4.528 | 4.58 Mbytes
Step Temp E_pair E_mol TotEng Press Volume Lx Ly Lz S/CPU 
    2000     293.0487   -10434.512            0   -9561.8626   -20879.588    795.93119    9.2674128    9.2674128    9.2674128            0 
    2100    285.98567   -10420.932            0    -9569.315   -22885.446    795.29768    9.2649534    9.2649534    9.2649534    66.861263 
    2200    294.98438   -10455.671            0   -9577.2583   -9446.1897    793.29764    9.2571803    9.2571803    9.2571803    57.342414 
    2300    301.73467    -10482.54            0   -9584.0259   -6619.2902    790.75541    9.2472811    9.2472811    9.2472811    68.143589 
    2400     298.3304   -10478.206            0   -9589.8294   -8684.5975    787.68033    9.2352786    9.2352786    9.2352786    82.117165 
    2500    287.43217    -10449.97            0   -9594.0464    17380.864    784.46417     9.222692     9.222692     9.222692    57.782624 
    2600    294.95616   -10477.187            0   -9598.8582    14860.826     781.9355    9.2127717    9.2127717    9.2127717    72.560934 
    2700    294.61127   -10480.487            0   -9603.1848    10570.432    780.22974    9.2060678    9.2060678    9.2060678    57.510989 
    2800     295.7693   -10488.206            0   -9607.4554    5329.0415    778.88866    9.2007902    9.2007902    9.2007902    75.369949 
    2900     291.9253   -10482.181            0   -9612.8772    7469.2182    777.64503    9.1958907    9.1958907    9.1958907    73.716561 
    3000    298.73199   -10509.288            0   -9619.7153    1875.2897    776.24348    9.1903628    9.1903628    9.1903628    69.079772 
Loop time of 14.9033 on 16 procs for 1000 steps with 1000 atoms

Performance: 5.797 ns/day, 4.140 hours/ns, 67.099 timesteps/s
94.8% CPU use with 16 MPI tasks x no OpenMP threads

MPI task timing breakdown:
Section |  min time  |  avg time  |  max time  |%varavg| %total
---------------------------------------------------------------
Pair    | 1.4334     | 1.553      | 1.9156     |   8.9 | 10.42
Neigh   | 0.60816    | 0.63568    | 0.74022    |   3.8 |  4.27
Comm    | 0.59373    | 1.0647     | 1.2065     |  13.7 |  7.14
Output  | 7.7376     | 7.9827     | 11.604     |  33.1 | 53.56
Modify  | 0.040089   | 3.6587     | 3.9037     |  48.8 | 24.55
Other   |            | 0.008524   |            |       |  0.06

Nlocal:    62.5 ave 68 max 55 min
Histogram: 3 0 1 0 1 1 4 2 1 3
Nghost:    1872.12 ave 1894 max 1840 min
Histogram: 1 0 1 2 2 2 1 4 1 2
Neighs:    0 ave 0 max 0 min
Histogram: 16 0 0 0 0 0 0 0 0 0
FullNghs:  19021.1 ave 20805 max 16501 min
Histogram: 2 1 1 0 1 2 2 3 2 2

Total # of neighbors = 304338
Ave neighs/atom = 304.338
Neighbor list builds = 1000
Dangerous builds not checked
Setting up Verlet run ...
  Unit style    : real
  Current step  : 3000
  Time step     : 1
Per MPI rank memory allocation (min/avg/max) = 4.577 | 4.578 | 4.58 Mbytes
Step Temp E_pair E_mol TotEng Press Volume Lx Ly Lz S/CPU 
    3000    298.73199   -10509.288            0   -9619.7153    1875.2897    776.24348    9.1903628    9.1903628    9.1903628            0 
    3100    295.94563   -10506.269            0   -9624.9933    9580.5145     774.7223    9.1843555    9.1843555    9.1843555    49.977633 
    3200    301.19951   -10527.151            0     -9630.23    13433.928    774.02336    9.1815927    9.1815927    9.1815927    75.848351 
    3300    290.39906   -10501.575            0   -9636.8167    5046.6482    774.32293    9.1827771    9.1827771    9.1827771    58.659234 
    3400    304.03845   -10548.876            0   -9643.5013    17144.743    774.97122     9.185339     9.185339     9.185339    75.065622 
    3500    292.49051   -10519.746            0   -9648.7595    14532.995    775.92077     9.189089     9.189089     9.189089    71.833618 
    3600     291.0072   -10520.766            0   -9654.1959    9420.0352     777.0754    9.1936448    9.1936448    9.1936448     58.40349 
    3700    292.05142    -10527.45            0   -9657.7705   -2194.1369    778.13245    9.1978116    9.1978116    9.1978116    82.126733 
    3800    300.35105   -10554.419            0   -9660.0244    11314.101     778.8521    9.2006462    9.2006462    9.2006462     82.34047 
    3900    281.96504   -10499.209            0   -9659.5655    7086.7177    779.68966    9.2039431    9.2039431    9.2039431    66.102968 
    4000    289.99768    -10522.74            0   -9659.1767   -3082.6735    780.50351    9.2071444    9.2071444    9.2071444    68.880256 
Loop time of 14.8573 on 16 procs for 1000 steps with 1000 atoms

Performance: 5.815 ns/day, 4.127 hours/ns, 67.307 timesteps/s
94.8% CPU use with 16 MPI tasks x no OpenMP threads

MPI task timing breakdown:
Section |  min time  |  avg time  |  max time  |%varavg| %total
---------------------------------------------------------------
Pair    | 1.5204     | 1.6219     | 1.8958     |   6.8 | 10.92
Neigh   | 0.62134    | 0.65054    | 0.7275     |   3.2 |  4.38
Comm    | 0.69638    | 1.0469     | 1.1691     |  10.9 |  7.05
Output  | 7.7651     | 8.0017     | 11.497     |  31.9 | 53.86
Modify  | 0.030838   | 3.5275     | 3.7642     |  48.1 | 23.74
Other   |            | 0.008676   |            |       |  0.06

Nlocal:    62.5 ave 68 max 54 min
Histogram: 1 0 1 1 0 4 2 5 1 1
Nghost:    1866.12 ave 1896 max 1835 min
Histogram: 1 0 4 2 0 3 3 0 1 2
Neighs:    0 ave 0 max 0 min
Histogram: 16 0 0 0 0 0 0 0 0 0
FullNghs:  18925.5 ave 20705 max 16132 min
Histogram: 1 0 0 2 0 3 5 3 1 1

Total # of neighbors = 302808
Ave neighs/atom = 302.808
Neighbor list builds = 1000
Dangerous builds not checked
Setting up Verlet run ...
  Unit style    : real
  Current step  : 4000
  Time step     : 1
Per MPI rank memory allocation (min/avg/max) = 4.577 | 4.578 | 4.58 Mbytes
Step Temp E_pair E_mol TotEng Press Volume Lx Ly Lz S/CPU 
    4000    289.99768    -10522.74            0   -9659.1767   -3082.6735    780.50351    9.2071444    9.2071444    9.2071444            0 
    4100     296.8704   -10540.745            0   -9656.7155    4066.8207    780.91581    9.2087653    9.2087653    9.2087653    67.442832 
    4200     297.3641   -10535.415            0   -9649.9158   -3667.1726    780.96247    9.2089487    9.2089487    9.2089487     73.21827 
    4300    298.43549   -10529.809            0   -9641.1193   -4536.3835    781.06269    9.2093426    9.2093426    9.2093426    80.554771 
    4400    302.94067   -10532.212            0   -9630.1059   -12.560319    780.98359    9.2090317    9.2090317    9.2090317    84.606551 
    4500     301.5343   -10517.824            0   -9619.9067    14880.002    780.92841    9.2088148    9.2088148    9.2088148    66.156469 
    4600    294.45473    -10486.45            0   -9609.6142    17789.224     781.2216    9.2099671    9.2099671    9.2099671    100.25981 
    4700    304.66829   -10508.369            0   -9601.1193   -9141.3534    782.05719    9.2132496    9.2132496    9.2132496    79.609023 
    4800    297.62174   -10478.742            0   -9592.4749   -754.91887     783.0609    9.2171894    9.2171894    9.2171894    60.290093 
    4900    306.70471   -10499.895            0   -9586.5803   -11076.152    783.75427    9.2199091    9.2199091    9.2199091    68.390447 
    5000     291.8255   -10449.418            0   -9580.4119    4511.9239    784.01231    9.2209208    9.2209208    9.2209208    73.186439 
Loop time of 13.5242 on 16 procs for 1000 steps with 1000 atoms

Performance: 6.389 ns/day, 3.757 hours/ns, 73.942 timesteps/s
95.0% CPU use with 16 MPI tasks x no OpenMP threads

MPI task timing breakdown:
Section |  min time  |  avg time  |  max time  |%varavg| %total
---------------------------------------------------------------
Pair    | 1.4322     | 1.5784     | 1.8255     |   7.4 | 11.67
Neigh   | 0.59382    | 0.63958    | 0.71695    |   3.7 |  4.73
Comm    | 0.75854    | 1.0827     | 1.2744     |  11.6 |  8.01
Output  | 6.7825     | 6.9981     | 10.178     |  31.0 | 51.74
Modify  | 0.036187   | 3.2169     | 3.4326     |  45.8 | 23.79
Other   |            | 0.008584   |            |       |  0.06

Nlocal:    62.5 ave 68 max 56 min
Histogram: 2 0 0 2 2 2 6 0 0 2
Nghost:    1859.31 ave 1870 max 1846 min
Histogram: 1 0 3 2 0 3 0 4 0 3
Neighs:    0 ave 0 max 0 min
Histogram: 16 0 0 0 0 0 0 0 0 0
FullNghs:  18832.1 ave 20349 max 16592 min
Histogram: 1 1 0 1 2 1 2 6 0 2

Total # of neighbors = 301314
Ave neighs/atom = 301.314
Neighbor list builds = 1000
Dangerous builds not checked
Setting up Verlet run ...
  Unit style    : real
  Current step  : 5000
  Time step     : 1
Per MPI rank memory allocation (min/avg/max) = 4.577 | 4.578 | 4.58 Mbytes
Step Temp E_pair E_mol TotEng Press Volume Lx Ly Lz S/CPU 
    5000     291.8255   -10449.418            0   -9580.4119    4511.9239    784.01231    9.2209208    9.2209208    9.2209208            0 
    5100    313.75513   -10513.093            0   -9578.7839   -9962.7469    784.25976    9.2218909    9.2218909    9.2218909    45.707353 
    5200     298.7186   -10465.027            0   -9575.4941    -282.6172    784.39722    9.2224296    9.2224296    9.2224296    90.996152 
    5300    304.70042   -10482.369            0   -9575.0233   -3832.9728    784.55046    9.2230301    9.2230301    9.2230301    72.947154 
    5400    302.56111   -10475.401            0   -9574.4262     1600.502    784.81958    9.2240846    9.2240846    9.2240846    72.417625 
    5500    299.72692   -10467.211            0   -9574.6751   -5340.1272    785.03108    9.2249131    9.2249131    9.2249131    104.88223 
    5600    296.20376   -10458.227            0   -9576.1831   -7291.0011    784.68972    9.2235758    9.2235758    9.2235758    92.053013 
    5700    292.40028   -10448.993            0    -9578.275    172.69102    783.85006    9.2202847    9.2202847    9.2202847    67.324429 
    5800    293.20187   -10453.051            0    -9579.946   -59.418959    782.76434    9.2160257    9.2160257    9.2160257    74.826541 
    5900    292.40538   -10452.707            0   -9581.9736    6037.7136    782.02271    9.2131142    9.2131142    9.2131142    83.335879 
    6000    300.20275   -10478.838            0   -9584.8857     3587.592    781.84994    9.2124357    9.2124357    9.2124357    54.320033 
Loop time of 13.941 on 16 procs for 1000 steps with 1000 atoms

Performance: 6.198 ns/day, 3.872 hours/ns, 71.731 timesteps/s
94.8% CPU use with 16 MPI tasks x no OpenMP threads

MPI task timing breakdown:
Section |  min time  |  avg time  |  max time  |%varavg| %total
---------------------------------------------------------------
Pair    | 1.4184     | 1.5683     | 1.8698     |   7.5 | 11.25
Neigh   | 0.60069    | 0.64046    | 0.72945    |   3.6 |  4.59
Comm    | 0.66314    | 1.0532     | 1.2424     |  11.9 |  7.55
Output  | 7.0862     | 7.3117     | 10.639     |  31.8 | 52.45
Modify  | 0.030055   | 3.3588     | 3.5844     |  46.9 | 24.09
Other   |            | 0.008521   |            |       |  0.06

Nlocal:    62.5 ave 69 max 56 min
Histogram: 2 0 3 1 2 2 3 0 0 3
Nghost:    1858.12 ave 1888 max 1842 min
Histogram: 3 3 2 1 3 1 2 0 0 1
Neighs:    0 ave 0 max 0 min
Histogram: 16 0 0 0 0 0 0 0 0 0
FullNghs:  18868.8 ave 20931 max 16872 min
Histogram: 2 1 2 1 3 1 3 0 0 3

Total # of neighbors = 301900
Ave neighs/atom = 301.9
Neighbor list builds = 1000
Dangerous builds not checked
Setting up Verlet run ...
  Unit style    : real
  Current step  : 6000
  Time step     : 1
Per MPI rank memory allocation (min/avg/max) = 4.577 | 4.578 | 4.58 Mbytes
Step Temp E_pair E_mol TotEng Press Volume Lx Ly Lz S/CPU 
    6000    300.20275   -10478.838            0   -9584.8857     3587.592    781.84994    9.2124357    9.2124357    9.2124357            0 
    6100    311.33526    -10515.23            0   -9588.1272    2158.6301    781.74052    9.2120059    9.2120059    9.2120059    61.336643 
    6200     306.7313   -10507.685            0   -9594.2919    10448.574    781.59303    9.2114265    9.2114265    9.2114265     83.66672 
    6300    303.50285   -10504.635            0   -9600.8549    12065.085    781.69829      9.21184      9.21184      9.21184    60.521234 
    6400    294.99232   -10490.802            0    -9612.365   -12936.302    782.26822    9.2140782    9.2140782    9.2140782    80.842974 
    6500    294.57864   -10504.825            0   -9627.6201    12868.807    782.66032    9.2156174    9.2156174    9.2156174    70.688148 
    6600    290.85678    -10511.11            0   -9644.9881   -5280.6946    782.84627    9.2163472    9.2163472    9.2163472    47.193826 
    6700    293.32072   -10534.338            0   -9660.8793    3236.2289    782.66581     9.215639     9.215639     9.215639     82.96297 
    6800    292.51693   -10543.228            0   -9672.1629   -7617.6489    782.44459    9.2147707    9.2147707    9.2147707    69.962058 
    6900    290.29143   -10541.324            0   -9676.8859    3427.0871    782.18024    9.2137328    9.2137328    9.2137328    59.594866 
    7000    293.01149   -10551.333            0   -9678.7945   -13690.192    781.97115    9.2129117    9.2129117    9.2129117    89.061926 
Loop time of 14.684 on 16 procs for 1000 steps with 1000 atoms

Performance: 5.884 ns/day, 4.079 hours/ns, 68.102 timesteps/s
94.8% CPU use with 16 MPI tasks x no OpenMP threads

MPI task timing breakdown:
Section |  min time  |  avg time  |  max time  |%varavg| %total
---------------------------------------------------------------
Pair    | 1.4516     | 1.5921     | 1.916      |   8.5 | 10.84
Neigh   | 0.60515    | 0.64654    | 0.74334    |   4.3 |  4.40
Comm    | 0.62979    | 1.0503     | 1.2238     |  13.6 |  7.15
Output  | 7.1568     | 7.4228     | 11.359     |  37.3 | 50.55
Modify  | 0.026887   | 3.9637     | 4.2297     |  51.1 | 26.99
Other   |            | 0.008596   |            |       |  0.06

Nlocal:    62.5 ave 69 max 57 min
Histogram: 2 1 4 0 1 3 2 0 1 2
Nghost:    1870.12 ave 1890 max 1849 min
Histogram: 3 0 0 2 3 1 3 0 2 2
Neighs:    0 ave 0 max 0 min
Histogram: 16 0 0 0 0 0 0 0 0 0
FullNghs:  18891.2 ave 20814 max 17189 min
Histogram: 2 1 4 0 2 1 2 1 1 2

Total # of neighbors = 302260
Ave neighs/atom = 302.26
Neighbor list builds = 1000
Dangerous builds not checked
Setting up Verlet run ...
  Unit style    : real
  Current step  : 7000
  Time step     : 1
Per MPI rank memory allocation (min/avg/max) = 4.577 | 4.578 | 4.58 Mbytes
Step Temp E_pair E_mol TotEng Press Volume Lx Ly Lz S/CPU 
    7000    293.01149   -10551.333            0   -9678.7945   -13690.192    781.97115    9.2129117    9.2129117    9.2129117            0 
    7100    296.74282   -10562.444            0   -9678.7947    8458.2982    781.43935    9.2108228    9.2108228    9.2108228    64.913712 
    7200    290.53522   -10539.569            0   -9674.4044    2734.6437    781.02886    9.2092097    9.2092097    9.2092097    68.579994 
    7300     284.2442   -10516.106            0   -9669.6755     648.4671    781.01987    9.2091743    9.2091743    9.2091743    78.888535 
    7400    293.92012   -10539.982            0   -9664.7382    12623.166    781.43892    9.2108211    9.2108211    9.2108211    69.398605 
    7500    291.29999   -10525.914            0   -9658.4726   -8873.5036    782.12995    9.2135353    9.2135353    9.2135353    87.885753 
    7600     295.8432   -10531.797            0   -9650.8265   -11997.742    782.32657    9.2143073    9.2143073    9.2143073    81.786448 
    7700    292.11457   -10512.152            0   -9642.2846   -11794.296    781.73924    9.2120009    9.2120009    9.2120009    81.543784 
    7800    298.01966   -10522.525            0   -9635.0737     7324.011    780.91475    9.2087611    9.2087611    9.2087611    65.492041 
    7900    291.39706   -10494.631            0   -9626.9003   -2829.4213    780.19395     9.205927     9.205927     9.205927    74.736663 
    8000    297.46552   -10507.217            0   -9621.4158   -4781.7901     779.5755    9.2034939    9.2034939    9.2034939    81.503438 
Loop time of 13.386 on 16 procs for 1000 steps with 1000 atoms

Performance: 6.455 ns/day, 3.718 hours/ns, 74.705 timesteps/s
94.9% CPU use with 16 MPI tasks x no OpenMP threads

MPI task timing breakdown:
Section |  min time  |  avg time  |  max time  |%varavg| %total
---------------------------------------------------------------
Pair    | 1.3714     | 1.5884     | 1.857      |   8.2 | 11.87
Neigh   | 0.58115    | 0.6447     | 0.72813    |   4.1 |  4.82
Comm    | 0.71003    | 1.0618     | 1.3425     |  13.0 |  7.93
Output  | 6.5303     | 6.7538     | 10.053     |  32.8 | 50.45
Modify  | 0.02852    | 3.3286     | 3.5524     |  46.7 | 24.87
Other   |            | 0.008578   |            |       |  0.06

Nlocal:    62.5 ave 69 max 55 min
Histogram: 1 0 1 2 2 4 2 3 0 1
Nghost:    1874.06 ave 1887 max 1857 min
Histogram: 3 1 0 1 0 1 1 4 4 1
Neighs:    0 ave 0 max 0 min
Histogram: 16 0 0 0 0 0 0 0 0 0
FullNghs:  18919.8 ave 21011 max 16527 min
Histogram: 1 0 0 4 2 3 2 3 0 1

Total # of neighbors = 302716
Ave neighs/atom = 302.716
Neighbor list builds = 1000
Dangerous builds not checked
Setting up Verlet run ...
  Unit style    : real
  Current step  : 8000
  Time step     : 1
Per MPI rank memory allocation (min/avg/max) = 4.577 | 4.578 | 4.58 Mbytes
Step Temp E_pair E_mol TotEng Press Volume Lx Ly Lz S/CPU 
    8000    297.46552   -10507.217            0   -9621.4158   -4781.7901     779.5755    9.2034939    9.2034939    9.2034939            0 
    8100    299.57454   -10508.479            0   -9616.3969    4036.0493    778.84579    9.2006214    9.2006214    9.2006214    62.530993 
    8200    301.60186   -10509.787            0   -9611.6685    6763.6674    778.53138    9.1993832    9.1993832    9.1993832    89.107873 
    8300    299.16695   -10498.998            0   -9608.1298    2403.1599    778.61685    9.1997198    9.1997198    9.1997198    94.229481 
    8400    294.68984   -10482.108            0   -9604.5721    -3361.426    779.14569    9.2018021    9.2018021    9.2018021    84.510676 
    8500    302.64863    -10503.63            0   -9602.3943   -9699.5878    779.88443    9.2047094    9.2047094    9.2047094    78.686181 
    8600    297.82189   -10487.562            0   -9600.6994    5346.4591    780.79656    9.2082966    9.2082966    9.2082966    67.365312 
    8700    305.44658   -10508.357            0   -9598.7895    5075.3347    781.78723    9.2121894    9.2121894    9.2121894    69.896589 
    8800    297.22371   -10482.693            0   -9597.6118   -6947.7898    783.05621     9.217171     9.217171     9.217171    77.161627 
    8900    307.42564   -10513.812            0   -9598.3505    827.33867    784.53227    9.2229588    9.2229588    9.2229588    63.973893 
    9000    304.83015   -10505.683            0   -9597.9512   -13245.102     785.8884      9.22827      9.22827      9.22827    70.557967 
Loop time of 13.4284 on 16 procs for 1000 steps with 1000 atoms

Performance: 6.434 ns/day, 3.730 hours/ns, 74.469 timesteps/s
94.9% CPU use with 16 MPI tasks x no OpenMP threads

MPI task timing breakdown:
Section |  min time  |  avg time  |  max time  |%varavg| %total
---------------------------------------------------------------
Pair    | 1.5076     | 1.5944     | 1.9583     |   8.2 | 11.87
Neigh   | 0.61599    | 0.64489    | 0.75299    |   4.0 |  4.80
Comm    | 0.58231    | 1.0538     | 1.165      |  13.0 |  7.85
Output  | 6.5119     | 6.7387     | 10.087     |  33.3 | 50.18
Modify  | 0.038646   | 3.388      | 3.6149     |  47.0 | 25.23
Other   |            | 0.008577   |            |       |  0.06

Nlocal:    62.5 ave 68 max 58 min
Histogram: 1 1 2 2 3 1 2 2 1 1
Nghost:    1856.69 ave 1870 max 1843 min
Histogram: 1 2 1 1 3 1 3 2 0 2
Neighs:    0 ave 0 max 0 min
Histogram: 16 0 0 0 0 0 0 0 0 0
FullNghs:  18765.4 ave 20603 max 17440 min
Histogram: 1 3 2 3 1 2 2 1 0 1

Total # of neighbors = 300246
Ave neighs/atom = 300.246
Neighbor list builds = 1000
Dangerous builds not checked
Setting up Verlet run ...
  Unit style    : real
  Current step  : 9000
  Time step     : 1
Per MPI rank memory allocation (min/avg/max) = 4.577 | 4.578 | 4.58 Mbytes
Step Temp E_pair E_mol TotEng Press Volume Lx Ly Lz S/CPU 
    9000    304.83015   -10505.683            0   -9597.9512   -13245.102     785.8884      9.22827      9.22827      9.22827            0 
    9100    299.62747   -10490.047            0   -9597.8078   -13573.652    786.46822     9.230539     9.230539     9.230539    68.240835 
    9200      298.871   -10487.537            0   -9597.5504   -8514.9545    786.44692    9.2304556    9.2304556    9.2304556    67.412583 
    9300    302.18822   -10499.241            0   -9599.3757    9616.0962    785.95403    9.2285269    9.2285269    9.2285269    66.220072 
    9400    292.63717   -10473.612            0   -9602.1888    1369.7766    785.29745    9.2259564    9.2259564    9.2259564    72.648014 
    9500    296.23805   -10489.316            0   -9607.1692   -1511.3371    784.45153    9.2226424    9.2226424    9.2226424    61.762298 
    9600    295.30039    -10493.02            0    -9613.666    9147.4786    783.56675    9.2191737    9.2191737    9.2191737    85.111481 
    9700    296.97043   -10507.544            0   -9623.2171   -445.21016    782.99591    9.2169344    9.2169344    9.2169344    73.875457 
    9800    295.90599   -10515.607            0   -9634.4498   -9928.5697    782.54926    9.2151815    9.2151815    9.2151815    53.043133 
    9900    288.48763    -10504.11            0   -9645.0426    7379.8344    781.92788    9.2127418    9.2127418    9.2127418    100.63196 
   10000    287.81282   -10512.816            0   -9655.7584    5541.2303     781.4578    9.2108953    9.2108953    9.2108953    71.020636 
Loop time of 14.2701 on 16 procs for 1000 steps with 1000 atoms

Performance: 6.055 ns/day, 3.964 hours/ns, 70.076 timesteps/s
94.8% CPU use with 16 MPI tasks x no OpenMP threads

MPI task timing breakdown:
Section |  min time  |  avg time  |  max time  |%varavg| %total
---------------------------------------------------------------
Pair    | 1.4109     | 1.5594     | 1.9585     |   9.5 | 10.93
Neigh   | 0.60382    | 0.63661    | 0.75126    |   4.3 |  4.46
Comm    | 0.55886    | 1.0724     | 1.2509     |  14.6 |  7.52
Output  | 7.5959     | 7.8096     | 10.96      |  29.1 | 54.73
Modify  | 0.031997   | 3.1836     | 3.3978     |  45.6 | 22.31
Other   |            | 0.008524   |            |       |  0.06

Nlocal:    62.5 ave 67 max 59 min
Histogram: 4 0 1 5 0 0 2 1 1 2
Nghost:    1866.75 ave 1902 max 1834 min
Histogram: 3 0 1 3 1 2 2 1 2 1
Neighs:    0 ave 0 max 0 min
Histogram: 16 0 0 0 0 0 0 0 0 0
FullNghs:  18865.2 ave 20464 max 17584 min
Histogram: 3 1 0 5 1 1 1 1 1 2

Total # of neighbors = 301844
Ave neighs/atom = 301.844
Neighbor list builds = 1000
Dangerous builds not checked
Setting up Verlet run ...
  Unit style    : real
  Current step  : 10000
  Time step     : 1
Per MPI rank memory allocation (min/avg/max) = 4.577 | 4.578 | 4.58 Mbytes
Step Temp E_pair E_mol TotEng Press Volume Lx Ly Lz S/CPU 
   10000    287.81282   -10512.816            0   -9655.7584    5541.2303     781.4578    9.2108953    9.2108953    9.2108953            0 
   10100    304.50963   -10571.882            0   -9665.1041    9296.9517    781.46583    9.2109268    9.2109268    9.2109268    60.931643 
   10200    294.40647   -10547.752            0   -9671.0595   -677.42239     782.0664    9.2132858    9.2132858    9.2132858    86.036011 
   10300    289.29896   -10537.108            0   -9675.6256   -9908.3365    782.63217     9.215507     9.215507     9.215507    95.772933 
   10400    285.84577   -10528.346            0   -9677.1462   -4564.6377    782.91871    9.2166315    9.2166315    9.2166315     61.76285 
   10500     298.3517   -10565.508            0   -9677.0675    -7397.285    782.72408    9.2158677    9.2158677    9.2158677    65.208628 
   10600    298.15534   -10562.054            0   -9674.1982   -676.88025    782.24066      9.21397      9.21397      9.21397    87.930804 
   10700    299.32318   -10561.138            0   -9669.8047   -7261.2054    781.68577    9.2117909    9.2117909    9.2117909    58.325354 
   10800    300.40967   -10559.306            0   -9664.7377    5068.9745     781.1301    9.2096076    9.2096076    9.2096076    72.552147 
   10900    289.59823   -10519.518            0   -9657.1438     2885.191     781.0271    9.2092027    9.2092027    9.2092027    81.733191 
   11000    295.55102   -10529.414            0   -9649.3131    3979.5276     781.4194    9.2107444    9.2107444    9.2107444    70.088057 
Loop time of 13.8806 on 16 procs for 1000 steps with 1000 atoms

Performance: 6.224 ns/day, 3.856 hours/ns, 72.043 timesteps/s
94.9% CPU use with 16 MPI tasks x no OpenMP threads

MPI task timing breakdown:
Section |  min time  |  avg time  |  max time  |%varavg| %total
---------------------------------------------------------------
Pair    | 1.4204     | 1.5818     | 1.8876     |   8.2 | 11.40
Neigh   | 0.59768    | 0.64411    | 0.73305    |   3.6 |  4.64
Comm    | 0.6646     | 1.0586     | 1.2668     |  12.7 |  7.63
Output  | 7.1361     | 7.3533     | 10.557     |  30.5 | 52.98
Modify  | 0.029083   | 3.2342     | 3.452      |  46.0 | 23.30
Other   |            | 0.008586   |            |       |  0.06

Nlocal:    62.5 ave 68 max 60 min
Histogram: 3 4 3 2 0 1 1 0 1 1
Nghost:    1837.06 ave 1862 max 1805 min
Histogram: 1 0 2 1 3 0 3 4 0 2
Neighs:    0 ave 0 max 0 min
Histogram: 16 0 0 0 0 0 0 0 0 0
FullNghs:  18892.8 ave 20777 max 17899 min
Histogram: 1 6 3 1 1 1 1 0 1 1

Total # of neighbors = 302284
Ave neighs/atom = 302.284
Neighbor list builds = 1000
Dangerous builds not checked
Setting up Verlet run ...
  Unit style    : real
  Current step  : 11000
  Time step     : 1
Per MPI rank memory allocation (min/avg/max) = 4.577 | 4.578 | 4.58 Mbytes
Step Temp E_pair E_mol TotEng Press Volume Lx Ly Lz S/CPU 
   11000    295.55102   -10529.414            0   -9649.3131    3979.5276     781.4194    9.2107444    9.2107444    9.2107444            0 
   11100    307.09399   -10553.888            0    -9639.415   -2497.6888    781.98333    9.2129596    9.2129596    9.2129596    79.264362 
   11200    302.22049   -10527.711            0   -9627.7497    7768.7999    782.66906    9.2156518    9.2156518    9.2156518    98.220568 
   11300    293.80308   -10491.083            0   -9616.1873   -11470.892    784.13022    9.2213831    9.2213831    9.2213831    89.001883 
   11400    291.09486   -10471.505            0    -9604.674   -9346.6608    785.74542    9.2277103    9.2277103    9.2277103    73.271914 
   11500    287.39582   -10450.523            0   -9594.7072    7567.8032    787.19134    9.2333671    9.2333671    9.2333671    93.279419 
   11600    301.87756   -10487.547            0   -9588.6075   -7515.4969    788.25615    9.2375285    9.2375285    9.2375285     72.52264 
   11700    305.42471   -10492.196            0   -9582.6937   -4246.7476    788.93479    9.2401787    9.2401787    9.2401787    66.227536 
   11800    305.81851   -10490.164            0   -9579.4886   -14802.266    789.53344    9.2425153    9.2425153    9.2425153    61.166004 
   11900    299.84982   -10470.449            0   -9577.5479   -1910.3978    789.48173    9.2423135    9.2423135    9.2423135    57.280759 
   12000    302.01215   -10477.646            0   -9578.3057   -3310.5719    788.77272    9.2395459    9.2395459    9.2395459    71.324113 
Loop time of 13.5117 on 16 procs for 1000 steps with 1000 atoms

Performance: 6.394 ns/day, 3.753 hours/ns, 74.010 timesteps/s
94.9% CPU use with 16 MPI tasks x no OpenMP threads

MPI task timing breakdown:
Section |  min time  |  avg time  |  max time  |%varavg| %total
---------------------------------------------------------------
Pair    | 1.4713     | 1.5701     | 1.8966     |   8.0 | 11.62
Neigh   | 0.60669    | 0.64302    | 0.75128    |   4.2 |  4.76
Comm    | 0.6172     | 1.0514     | 1.1863     |  13.0 |  7.78
Output  | 6.8411     | 7.0547     | 10.204     |  30.6 | 52.21
Modify  | 0.033628   | 3.1839     | 3.3976     |  45.6 | 23.56
Other   |            | 0.008536   |            |       |  0.06

Nlocal:    62.5 ave 67 max 59 min
Histogram: 2 2 4 1 0 1 2 1 1 2
Nghost:    1857.31 ave 1875 max 1843 min
Histogram: 1 3 3 0 2 3 0 3 0 1
Neighs:    0 ave 0 max 0 min
Histogram: 16 0 0 0 0 0 0 0 0 0
FullNghs:  18705.4 ave 20071 max 17521 min
Histogram: 2 2 3 1 1 1 2 1 1 2

Total # of neighbors = 299286
Ave neighs/atom = 299.286
Neighbor list builds = 1000
Dangerous builds not checked
Setting up Verlet run ...
  Unit style    : real
  Current step  : 12000
  Time step     : 1
Per MPI rank memory allocation (min/avg/max) = 4.577 | 4.578 | 4.58 Mbytes
Step Temp E_pair E_mol TotEng Press Volume Lx Ly Lz S/CPU 
   12000    302.01215   -10477.646            0   -9578.3057   -3310.5719    788.77272    9.2395459    9.2395459    9.2395459            0 
   12100    303.07526   -10481.773            0    -9579.267   -8599.2921    787.49061     9.234537     9.234537     9.234537    96.475866 
   12200    296.97415   -10465.261            0   -9580.9226   -8211.9318    785.68125    9.2274591    9.2274591    9.2274591    59.200719 
   12300    301.39961   -10481.386            0   -9583.8691   -5333.1942    783.46082    9.2187583    9.2187583    9.2187583    82.313187 
   12400    311.36153   -10514.957            0   -9587.7753    10520.847    781.38443     9.210607     9.210607     9.210607    105.24241 
   12500    305.34533    -10502.82            0   -9593.5534    8876.2643    779.72924    9.2040988    9.2040988    9.2040988     65.86047 
   12600    309.53904   -10521.891            0   -9600.1366    5511.1636    778.20148    9.1980836    9.1980836    9.1980836    88.941099 
   12700     289.1342   -10466.852            0   -9605.8593    12743.405    777.14531    9.1939205    9.1939205    9.1939205    68.180999 
   12800    297.15839   -10497.375            0   -9612.4876    4552.6717    776.66614    9.1920305    9.1920305    9.1920305    68.121743 
   12900     286.1205   -10472.111            0   -9620.0926    14279.726    776.93663    9.1930975    9.1930975    9.1930975     88.86389 
   13000    291.25901   -10494.767            0   -9627.4473    11878.155    778.35027    9.1986697    9.1986697    9.1986697    75.708232 
Loop time of 12.9143 on 16 procs for 1000 steps with 1000 atoms

Performance: 6.690 ns/day, 3.587 hours/ns, 77.434 timesteps/s
95.0% CPU use with 16 MPI tasks x no OpenMP threads

MPI task timing breakdown:
Section |  min time  |  avg time  |  max time  |%varavg| %total
---------------------------------------------------------------
Pair    | 1.4333     | 1.5845     | 1.8927     |   8.3 | 12.27
Neigh   | 0.59247    | 0.64134    | 0.7405     |   4.0 |  4.97
Comm    | 0.65115    | 1.0583     | 1.2577     |  13.1 |  8.19
Output  | 6.6239     | 6.8129     | 9.5943     |  27.5 | 52.75
Modify  | 0.026472   | 2.8087     | 2.9986     |  42.9 | 21.75
Other   |            | 0.008572   |            |       |  0.07

Nlocal:    62.5 ave 67 max 58 min
Histogram: 1 3 1 2 0 3 1 2 1 2
Nghost:    1861.62 ave 1881 max 1844 min
Histogram: 1 3 2 2 1 1 1 2 1 2
Neighs:    0 ave 0 max 0 min
Histogram: 16 0 0 0 0 0 0 0 0 0
FullNghs:  18980.1 ave 20532 max 17484 min
Histogram: 2 2 2 1 1 2 1 1 3 1

Total # of neighbors = 303682
Ave neighs/atom = 303.682
Neighbor list builds = 1000
Dangerous builds not checked
Setting up Verlet run ...
  Unit style    : real
  Current step  : 13000
  Time step     : 1
Per MPI rank memory allocation (min/avg/max) = 4.577 | 4.578 | 4.58 Mbytes
Step Temp E_pair E_mol TotEng Press Volume Lx Ly Lz S/CPU 
   13000    291.25901   -10494.767            0   -9627.4473    11878.155    778.35027    9.1986697    9.1986697    9.1986697            0 
   13100     299.1163   -10524.153            0   -9633.4354   -4874.4634    780.50542    9.2071519    9.2071519    9.2071519    60.916838 
   13200    291.07868    -10504.62            0   -9637.8376   -9539.4481    782.74667    9.2159564    9.2159564    9.2159564    79.777888 
   13300    290.13291   -10504.989            0   -9641.0224   -5179.5664    784.95361    9.2246097    9.2246097    9.2246097    97.329683 
   13400    296.77601   -10527.476            0   -9643.7282   -6580.7181    787.03893    9.2327712    9.2327712    9.2327712     49.61411 
   13500    286.65445   -10497.345            0   -9643.7366   -13515.548    788.69392    9.2392382    9.2392382    9.2392382    80.699992 
   13600    288.10564   -10499.518            0   -9641.5887   -20101.183    789.64675    9.2429574    9.2429574    9.2429574    102.84285 
   13700    302.51308    -10539.05            0   -9638.2181   -20750.735    790.47107    9.2461726    9.2461726    9.2461726    59.122156 
   13800    301.99188   -10528.192            0   -9628.9115   -799.62786    790.59102    9.2466402    9.2466402    9.2466402    81.164471 
   13900     293.4116   -10488.036            0   -9614.3068   -30576.924    790.22207    9.2452016    9.2452016    9.2452016    90.714784 
   14000    294.35157   -10472.724            0   -9596.1951   -6821.4641    789.24272    9.2413807    9.2413807    9.2413807    73.101665 
Loop time of 13.5434 on 16 procs for 1000 steps with 1000 atoms

Performance: 6.379 ns/day, 3.762 hours/ns, 73.837 timesteps/s
94.9% CPU use with 16 MPI tasks x no OpenMP threads

MPI task timing breakdown:
Section |  min time  |  avg time  |  max time  |%varavg| %total
---------------------------------------------------------------
Pair    | 1.4372     | 1.5582     | 1.8544     |   7.3 | 11.51
Neigh   | 0.60714    | 0.64066    | 0.72539    |   3.5 |  4.73
Comm    | 0.68002    | 1.0607     | 1.2153     |  11.4 |  7.83
Output  | 6.5545     | 6.7883     | 10.243     |  34.2 | 50.12
Modify  | 0.031156   | 3.487      | 3.7212     |  47.8 | 25.75
Other   |            | 0.008539   |            |       |  0.06

Nlocal:    62.5 ave 69 max 56 min
Histogram: 2 0 1 3 2 2 3 1 1 1
Nghost:    1851.25 ave 1858 max 1844 min
Histogram: 1 0 5 1 1 2 1 1 2 2
Neighs:    0 ave 0 max 0 min
Histogram: 16 0 0 0 0 0 0 0 0 0
FullNghs:  18700.4 ave 20610 max 16571 min
Histogram: 1 1 2 1 3 2 0 4 1 1

Total # of neighbors = 299206
Ave neighs/atom = 299.206
Neighbor list builds = 1000
Dangerous builds not checked
Setting up Verlet run ...
  Unit style    : real
  Current step  : 14000
  Time step     : 1
Per MPI rank memory allocation (min/avg/max) = 4.577 | 4.578 | 4.58 Mbytes
Step Temp E_pair E_mol TotEng Press Volume Lx Ly Lz S/CPU 
   14000    294.35157   -10472.724            0   -9596.1951   -6821.4641    789.24272    9.2413807    9.2413807    9.2413807            0 
   14100    301.68551   -10477.307            0    -9578.939   -6811.0569    788.20035    9.2373105    9.2373105    9.2373105     89.73404 
   14200    301.88346   -10465.402            0    -9566.445   -1860.4894    787.02754    9.2327266    9.2327266    9.2327266    80.884313 
   14300    298.27987   -10445.903            0   -9557.6761    7019.8203    785.95677    9.2285376    9.2285376    9.2285376    56.693192 
   14400    307.13499   -10466.384            0    -9551.788    7648.7796    785.29146    9.2259329    9.2259329    9.2259329    75.025634 
   14500    295.90648   -10429.109            0   -9547.9499   -37.066574     785.1813    9.2255015    9.2255015    9.2255015    78.423023 
   14600    308.18043   -10464.481            0   -9546.7725    708.39793    785.51931    9.2268251    9.2268251    9.2268251    55.737823 
   14700    311.25511   -10473.883            0   -9547.0182    2366.9648    786.41643    9.2303363    9.2303363    9.2303363    76.332664 
   14800    294.05839   -10423.365            0   -9547.7096    17274.519    787.49016    9.2345353    9.2345353    9.2345353    66.739237 
   14900    314.25457   -10488.432            0   -9552.6359   -6481.0906    789.42139     9.242078     9.242078     9.242078    60.557282 
   15000     295.5302   -10436.367            0   -9556.3287   -5033.8499    791.55591    9.2504004    9.2504004    9.2504004    77.045487 
Loop time of 14.2745 on 16 procs for 1000 steps with 1000 atoms

Performance: 6.053 ns/day, 3.965 hours/ns, 70.055 timesteps/s
94.8% CPU use with 16 MPI tasks x no OpenMP threads

MPI task timing breakdown:
Section |  min time  |  avg time  |  max time  |%varavg| %total
---------------------------------------------------------------
Pair    | 1.4396     | 1.5613     | 1.7768     |   5.3 | 10.94
Neigh   | 0.6073     | 0.63887    | 0.70974    |   3.0 |  4.48
Comm    | 0.7474     | 1.0335     | 1.1862     |   8.7 |  7.24
Output  | 7.3165     | 7.55       | 10.999     |  32.4 | 52.89
Modify  | 0.032216   | 3.4823     | 3.7156     |  47.7 | 24.40
Other   |            | 0.008531   |            |       |  0.06

Nlocal:    62.5 ave 66 max 58 min
Histogram: 1 1 0 4 0 2 2 3 1 2
Nghost:    1832.06 ave 1848 max 1821 min
Histogram: 2 4 2 1 1 2 0 1 2 1
Neighs:    0 ave 0 max 0 min
Histogram: 16 0 0 0 0 0 0 0 0 0
FullNghs:  18642.9 ave 19816 max 17269 min
Histogram: 2 0 0 4 1 2 2 2 1 2

Total # of neighbors = 298286
Ave neighs/atom = 298.286
Neighbor list builds = 1000
Dangerous builds not checked
Setting up Verlet run ...
  Unit style    : real
  Current step  : 15000
  Time step     : 1
Per MPI rank memory allocation (min/avg/max) = 4.577 | 4.578 | 4.58 Mbytes
Step Temp E_pair E_mol TotEng Press Volume Lx Ly Lz S/CPU 
   15000     295.5302   -10436.367            0   -9556.3287   -5033.8499    791.55591    9.2504004    9.2504004    9.2504004            0 
   15100    296.42749   -10445.262            0   -9562.5515   -8994.1024    793.26241    9.2570432    9.2570432    9.2570432    97.715008 
   15200     295.0774   -10447.982            0    -9569.292    -12298.25    794.43625     9.261607     9.261607     9.261607    93.086402 
   15300     298.9991   -10466.545            0   -9576.1764   -17644.218    794.90788    9.2634395    9.2634395    9.2634395    69.895053 
   15400    294.78642   -10460.698            0   -9582.8749   -12121.195    793.93044     9.259641     9.259641     9.259641    68.286316 
   15500    298.33739   -10479.731            0   -9591.3333   -16528.916    791.47408    9.2500816    9.2500816    9.2500816    81.617982 
   15600    285.49641     -10449.7            0   -9599.5402   -11205.931    787.83658    9.2358892    9.2358892    9.2358892    62.668697 
   15700    298.66276   -10497.223            0   -9607.8564    202.32477    783.49161     9.218879     9.218879     9.218879    83.665574 
   15800    301.53165   -10510.493            0   -9612.5833    18837.815    779.46373     9.203054     9.203054     9.203054    76.389716 
   15900    304.15929   -10525.461            0   -9619.7265    20310.341     776.2288    9.1903048    9.1903048    9.1903048     87.71843 
   16000    292.59089    -10496.71            0   -9625.4245    27332.118    774.13013    9.1820148    9.1820148    9.1820148     87.23648 
Loop time of 12.6044 on 16 procs for 1000 steps with 1000 atoms

Performance: 6.855 ns/day, 3.501 hours/ns, 79.338 timesteps/s
95.0% CPU use with 16 MPI tasks x no OpenMP threads

MPI task timing breakdown:
Section |  min time  |  avg time  |  max time  |%varavg| %total
---------------------------------------------------------------
Pair    | 1.4289     | 1.5612     | 1.8441     |   7.8 | 12.39
Neigh   | 0.59734    | 0.64018    | 0.72522    |   3.5 |  5.08
Comm    | 0.69401    | 1.0624     | 1.2381     |  12.1 |  8.43
Output  | 5.8037     | 6.0256     | 9.3014     |  34.5 | 47.81
Modify  | 0.030491   | 3.3065     | 3.5285     |  46.5 | 26.23
Other   |            | 0.008507   |            |       |  0.07

Nlocal:    62.5 ave 68 max 57 min
Histogram: 1 2 2 1 2 1 3 2 0 2
Nghost:    1878.19 ave 1893 max 1863 min
Histogram: 1 2 1 3 0 1 2 3 2 1
Neighs:    0 ave 0 max 0 min
Histogram: 16 0 0 0 0 0 0 0 0 0
FullNghs:  19074.6 ave 20844 max 17620 min
Histogram: 2 2 2 2 1 3 1 1 0 2

Total # of neighbors = 305194
Ave neighs/atom = 305.194
Neighbor list builds = 1000
Dangerous builds not checked
Setting up Verlet run ...
  Unit style    : real
  Current step  : 16000
  Time step     : 1
Per MPI rank memory allocation (min/avg/max) = 4.577 | 4.578 | 4.58 Mbytes
Step Temp E_pair E_mol TotEng Press Volume Lx Ly Lz S/CPU 
   16000    292.59089    -10496.71            0   -9625.4245    27332.118    774.13013    9.1820148    9.1820148    9.1820148            0 
   16100    311.76901   -10562.253            0   -9633.8581    13484.875      773.191    9.1783003    9.1783003    9.1783003    82.811166 
   16200     307.1683   -10556.254            0    -9641.559    30276.149    773.36358    9.1789831    9.1789831    9.1789831    62.902445 
   16300    302.78342   -10552.011            0   -9650.3737    5295.3526    774.65143    9.1840754    9.1840754    9.1840754    88.571618 
   16400     292.6852   -10531.463            0   -9659.8965    9701.9461    776.86616    9.1928195    9.1928195    9.1928195    71.506999 
   16500    304.66856   -10578.041            0   -9670.7905    2015.7836    779.38644    9.2027498    9.2027498    9.2027498    70.336037 
   16600    296.15901   -10561.298            0   -9679.3873    7535.5116    781.80145    9.2122452    9.2122452    9.2122452    78.863953 
   16700    289.00349   -10545.945            0    -9685.342   -8627.9814     784.3487    9.2222394    9.2222394    9.2222394    76.260042 
   16800    277.10032   -10515.609            0   -9690.4516   -15821.615    786.34903    9.2300726    9.2300726    9.2300726       58.554 
   16900    289.28503   -10556.689            0   -9695.2477   -18224.122    787.22202     9.233487     9.233487     9.233487    76.043431 
   17000    282.44398   -10537.794            0   -9696.7239   -7446.9768    787.12067    9.2330908    9.2330908    9.2330908    62.531956 
Loop time of 13.9479 on 16 procs for 1000 steps with 1000 atoms

Performance: 6.194 ns/day, 3.874 hours/ns, 71.695 timesteps/s
94.9% CPU use with 16 MPI tasks x no OpenMP threads

MPI task timing breakdown:
Section |  min time  |  avg time  |  max time  |%varavg| %total
---------------------------------------------------------------
Pair    | 1.4398     | 1.5892     | 1.9076     |   7.8 | 11.39
Neigh   | 0.59163    | 0.64215    | 0.73702    |   3.8 |  4.60
Comm    | 0.64195    | 1.0552     | 1.255      |  12.3 |  7.57
Output  | 6.9355     | 7.1693     | 10.623     |  33.3 | 51.40
Modify  | 0.028934   | 3.4835     | 3.7177     |  47.8 | 24.97
Other   |            | 0.008588   |            |       |  0.06

Nlocal:    62.5 ave 68 max 58 min
Histogram: 1 1 1 3 3 2 1 2 1 1
Nghost:    1848.44 ave 1866 max 1830 min
Histogram: 1 1 2 1 1 3 3 3 0 1
Neighs:    0 ave 0 max 0 min
Histogram: 16 0 0 0 0 0 0 0 0 0
FullNghs:  18766.9 ave 20399 max 17398 min
Histogram: 2 1 1 2 4 2 0 2 1 1

Total # of neighbors = 300270
Ave neighs/atom = 300.27
Neighbor list builds = 1000
Dangerous builds not checked
Setting up Verlet run ...
  Unit style    : real
  Current step  : 17000
  Time step     : 1
Per MPI rank memory allocation (min/avg/max) = 4.577 | 4.578 | 4.58 Mbytes
Step Temp E_pair E_mol TotEng Press Volume Lx Ly Lz S/CPU 
   17000    282.44398   -10537.794            0   -9696.7239   -7446.9768    787.12067    9.2330908    9.2330908    9.2330908            0 
   17100    296.15211   -10580.229            0   -9698.3384   -301.85861    786.71544     9.231506     9.231506     9.231506    80.757698 
   17200    288.01798     -10552.1            0   -9694.4321   -7094.7843    786.19853    9.2294837    9.2294837    9.2294837    66.974318 
   17300    293.49944    -10560.44            0   -9686.4486   -12316.546    785.05551    9.2250088    9.2250088    9.2250088    59.316316 
   17400    286.60718    -10526.75            0    -9673.283   -10666.341    783.17774    9.2176478    9.2176478    9.2176478     69.27633 
   17500    294.46053   -10534.797            0   -9657.9438    3604.3437    780.73287    9.2080462    9.2080462    9.2080462    68.925165 
   17600    296.03274   -10524.698            0   -9643.1626    10529.751    778.37817    9.1987797    9.1987797    9.1987797    54.334129 
   17700    302.06624   -10528.665            0    -9629.163    15325.615    776.55794    9.1916036    9.1916036    9.1916036    69.030285 
   17800    304.89205   -10526.649            0   -9618.7322    5013.1766    775.73947    9.1883733    9.1883733    9.1883733    68.074828 
   17900    308.57788   -10528.932            0   -9610.0402    18447.869    776.11406     9.189852     9.189852     9.189852    63.257824 
   18000    293.81236   -10476.639            0   -9601.7156    11278.457     777.7629    9.1963553    9.1963553    9.1963553    65.264331 
Loop time of 15.1828 on 16 procs for 1000 steps with 1000 atoms

Performance: 5.691 ns/day, 4.217 hours/ns, 65.864 timesteps/s
94.7% CPU use with 16 MPI tasks x no OpenMP threads

MPI task timing breakdown:
Section |  min time  |  avg time  |  max time  |%varavg| %total
---------------------------------------------------------------
Pair    | 1.4891     | 1.5811     | 1.8559     |   6.9 | 10.41
Neigh   | 0.60911    | 0.64197    | 0.73316    |   3.4 |  4.23
Comm    | 0.68488    | 1.0512     | 1.1759     |  10.9 |  6.92
Output  | 8.2272     | 8.4579     | 11.866     |  30.3 | 55.71
Modify  | 0.033494   | 3.442      | 3.6731     |  47.4 | 22.67
Other   |            | 0.008575   |            |       |  0.06

Nlocal:    62.5 ave 70 max 56 min
Histogram: 2 0 2 2 4 1 1 3 0 1
Nghost:    1869.69 ave 1886 max 1844 min
Histogram: 1 0 0 0 2 6 3 0 2 2
Neighs:    0 ave 0 max 0 min
Histogram: 16 0 0 0 0 0 0 0 0 0
FullNghs:  18990.4 ave 21469 max 16971 min
Histogram: 2 1 2 2 3 1 1 3 0 1

Total # of neighbors = 303846
Ave neighs/atom = 303.846
Neighbor list builds = 1000
Dangerous builds not checked
Setting up Verlet run ...
  Unit style    : real
  Current step  : 18000
  Time step     : 1
Per MPI rank memory allocation (min/avg/max) = 4.577 | 4.578 | 4.58 Mbytes
Step Temp E_pair E_mol TotEng Press Volume Lx Ly Lz S/CPU 
   18000    293.81236   -10476.639            0   -9601.7156    11278.457     777.7629    9.1963553    9.1963553    9.1963553            0 
   18100    303.64886   -10500.528            0   -9596.3137    2254.5428    780.07066     9.205442     9.205442     9.205442    58.718419 
   18200    304.96305   -10500.237            0   -9592.1091   -1567.6526    782.71266    9.2158229    9.2158229    9.2158229      61.4357 
   18300    290.67798   -10453.715            0    -9588.126    3233.4595    785.57437    9.2270407    9.2270407    9.2270407    77.849368 
   18400    298.18453   -10472.624            0   -9584.6811   -3651.6723    788.53497    9.2386175    9.2386175    9.2386175     56.44031 
   18500    298.05675   -10469.228            0   -9581.6655   -12664.008    791.10627    9.2486485    9.2486485    9.2486485    78.534614 
   18600    298.71084   -10468.589            0   -9579.0796   -13843.786     792.9116    9.2556784    9.2556784    9.2556784    65.967024 
   18700    294.27531   -10451.897            0    -9575.595   -15983.221    793.90827    9.2595548    9.2595548    9.2595548    67.361034 
   18800    314.56113   -10511.222            0   -9574.5122   -14835.076    793.98207    9.2598418    9.2598418    9.2598418    68.103336 
   18900    300.24689    -10467.14            0   -9573.0557    3081.4926     793.2704    9.2570743    9.2570743    9.2570743    76.141611 
   19000    306.69051    -10485.89            0   -9572.6183   -11094.226     792.0717    9.2524092    9.2524092    9.2524092    61.286713 
Loop time of 15.0743 on 16 procs for 1000 steps with 1000 atoms

Performance: 5.732 ns/day, 4.187 hours/ns, 66.338 timesteps/s
94.7% CPU use with 16 MPI tasks x no OpenMP threads

MPI task timing breakdown:
Section |  min time  |  avg time  |  max time  |%varavg| %total
---------------------------------------------------------------
Pair    | 1.429      | 1.5501     | 1.8763     |   8.8 | 10.28
Neigh   | 0.59611    | 0.63784    | 0.74077    |   4.4 |  4.23
Comm    | 0.62219    | 1.0511     | 1.2017     |  13.9 |  6.97
Output  | 8.2955     | 8.5166     | 11.778     |  28.9 | 56.50
Modify  | 0.047304   | 3.31       | 3.5311     |  46.3 | 21.96
Other   |            | 0.008545   |            |       |  0.06

Nlocal:    62.5 ave 67 max 58 min
Histogram: 1 2 1 3 2 0 3 1 1 2
Nghost:    1849.44 ave 1874 max 1830 min
Histogram: 1 3 0 2 3 4 2 0 0 1
Neighs:    0 ave 0 max 0 min
Histogram: 16 0 0 0 0 0 0 0 0 0
FullNghs:  18625.1 ave 19974 max 17272 min
Histogram: 1 2 1 4 1 0 2 2 1 2

Total # of neighbors = 298002
Ave neighs/atom = 298.002
Neighbor list builds = 1000
Dangerous builds not checked
Setting up Verlet run ...
  Unit style    : real
  Current step  : 19000
  Time step     : 1
Per MPI rank memory allocation (min/avg/max) = 4.577 | 4.578 | 4.58 Mbytes
Step Temp E_pair E_mol TotEng Press Volume Lx Ly Lz S/CPU 
   19000    306.69051    -10485.89            0   -9572.6183   -11094.226     792.0717    9.2524092    9.2524092    9.2524092            0 
   19100    309.39701   -10494.634            0   -9573.3024   -6532.5855    789.97971    9.2442563    9.2442563    9.2442563    68.913786 
   19200    299.51439   -10464.998            0   -9573.0957   -4396.1369    787.29757    9.2337824    9.2337824    9.2337824    61.276082 
   19300    291.46907    -10442.09            0   -9574.1444   -1371.0615    784.51187    9.2228789    9.2228789    9.2228789    61.815224 
   19400    311.47617   -10504.256            0   -9576.7336    13243.126     781.5182    9.2111325    9.2111325    9.2111325    83.419476 
   19500    297.92454   -10465.443            0   -9578.2744    13613.243    778.78831     9.200395     9.200395     9.200395    65.612846 
   19600    291.45806   -10449.353            0   -9581.4408    4540.5772    777.44672    9.1951089    9.1951089    9.1951089    62.469345 
   19700    300.76089   -10483.285            0   -9587.6706    11598.682    777.13711    9.1938881    9.1938881    9.1938881    82.383783 
   19800    293.64956   -10468.053            0   -9593.6146    10419.268    777.64222    9.1958796    9.1958796    9.1958796    66.464685 
   19900    303.62702   -10505.855            0   -9601.7057   -3446.8176     778.8613    9.2006825    9.2006825    9.2006825     70.32202 
   20000    304.51598   -10517.095            0   -9610.2989   -6135.8546    780.39362    9.2067123    9.2067123    9.2067123    84.597599 
Loop time of 14.3469 on 16 procs for 1000 steps with 1000 atoms

Performance: 6.022 ns/day, 3.985 hours/ns, 69.701 timesteps/s
94.9% CPU use with 16 MPI tasks x no OpenMP threads

MPI task timing breakdown:
Section |  min time  |  avg time  |  max time  |%varavg| %total
---------------------------------------------------------------
Pair    | 1.4644     | 1.5889     | 1.9029     |   8.2 | 11.07
Neigh   | 0.5971     | 0.64322    | 0.73248    |   3.9 |  4.48
Comm    | 0.6641     | 1.0665     | 1.2375     |  12.9 |  7.43
Output  | 7.6069     | 7.8228     | 11.009     |  29.4 | 54.53
Modify  | 0.029444   | 3.2169     | 3.4332     |  45.9 | 22.42
Other   |            | 0.008583   |            |       |  0.06

Nlocal:    62.5 ave 69 max 59 min
Histogram: 2 0 3 6 1 1 1 1 0 1
Nghost:    1861.31 ave 1883 max 1847 min
Histogram: 2 2 4 1 1 2 2 1 0 1
Neighs:    0 ave 0 max 0 min
Histogram: 16 0 0 0 0 0 0 0 0 0
FullNghs:  18922.1 ave 21042 max 17807 min
Histogram: 2 2 3 4 2 1 1 0 0 1

Total # of neighbors = 302754
Ave neighs/atom = 302.754
Neighbor list builds = 1000
Dangerous builds not checked
Setting up Verlet run ...
  Unit style    : real
  Current step  : 20000
  Time step     : 1
Per MPI rank memory allocation (min/avg/max) = 4.577 | 4.578 | 4.58 Mbytes
Step Temp E_pair E_mol TotEng Press Volume Lx Ly Lz S/CPU 
   20000    304.51598   -10517.095            0   -9610.2989   -6135.8546    780.39362    9.2067123    9.2067123    9.2067123            0 
   20100    295.43683   -10499.375            0    -9619.615   -8851.2484    782.14964    9.2136127    9.2136127    9.2136127    69.018222 
   20200    292.46643   -10499.165            0   -9628.2496   -7010.2177    783.59852    9.2192983    9.2192983    9.2192983    64.764462 
   20300    295.59297   -10519.044            0   -9638.8189    -4923.015    784.72368    9.2237089    9.2237089    9.2237089    73.398376 
   20400    282.62988   -10487.508            0   -9645.8845   -1338.1145    785.65869    9.2273708    9.2273708    9.2273708     55.39691 
   20500    291.69309   -10519.758            0   -9651.1456   -21936.489    786.08792    9.2290509    9.2290509    9.2290509    90.098944 
   20600    293.72702   -10529.936            0   -9655.2672   -6293.6581    785.70455    9.2275503    9.2275503    9.2275503    73.430726 
   20700    289.29943   -10517.941            0   -9656.4569   -10664.723     784.8639    9.2242582    9.2242582    9.2242582    61.191228 
   20800    293.57482   -10530.349            0   -9656.1336   -6379.0701    783.33552    9.2182668    9.2182668    9.2182668    74.685159 
   20900    306.93724   -10569.442            0   -9655.4353   -10913.688    781.65925    9.2116867    9.2116867    9.2116867    80.769106 
   21000    302.03029   -10550.944            0   -9651.5494    8271.3895    779.66712    9.2038544    9.2038544    9.2038544     57.67349 
Loop time of 14.5774 on 16 procs for 1000 steps with 1000 atoms

Performance: 5.927 ns/day, 4.049 hours/ns, 68.599 timesteps/s
94.8% CPU use with 16 MPI tasks x no OpenMP threads

MPI task timing breakdown:
Section |  min time  |  avg time  |  max time  |%varavg| %total
---------------------------------------------------------------
Pair    | 1.4284     | 1.5802     | 1.9494     |   9.8 | 10.84
Neigh   | 0.60257    | 0.64321    | 0.74603    |   4.2 |  4.41
Comm    | 0.59351    | 1.0657     | 1.2579     |  15.1 |  7.31
Output  | 7.5879     | 7.8197     | 11.242     |  31.6 | 53.64
Modify  | 0.03708    | 3.4601     | 3.6922     |  47.5 | 23.74
Other   |            | 0.008582   |            |       |  0.06

Nlocal:    62.5 ave 68 max 57 min
Histogram: 2 0 3 2 1 1 2 2 1 2
Nghost:    1859.62 ave 1884 max 1848 min
Histogram: 3 5 2 2 0 0 1 2 0 1
Neighs:    0 ave 0 max 0 min
Histogram: 16 0 0 0 0 0 0 0 0 0
FullNghs:  18947.1 ave 20648 max 17086 min
Histogram: 2 0 2 2 1 2 2 2 2 1

Total # of neighbors = 303154
Ave neighs/atom = 303.154
Neighbor list builds = 1000
Dangerous builds not checked
Setting up Verlet run ...
  Unit style    : real
  Current step  : 21000
  Time step     : 1
Per MPI rank memory allocation (min/avg/max) = 4.577 | 4.578 | 4.58 Mbytes
Step Temp E_pair E_mol TotEng Press Volume Lx Ly Lz S/CPU 
   21000    302.03029   -10550.944            0   -9651.5494    8271.3895    779.66712    9.2038544    9.2038544    9.2038544            0 
   21100    295.83262   -10526.867            0   -9645.9283   -3332.0428    777.75375    9.1963192    9.1963192    9.1963192    74.866707 
   21200    296.56808   -10519.207            0   -9636.0779    19838.555     776.2647    9.1904465    9.1904465    9.1904465    88.211319 
   21300    297.44136   -10508.631            0   -9622.9016    17755.676    775.95861    9.1892384    9.1892384    9.1892384    63.651122 
   21400    298.88157   -10495.952            0    -9605.934     12401.47    776.86485    9.1928144    9.1928144    9.1928144    85.760185 
   21500    306.47059   -10501.227            0   -9588.6102    11174.421    778.82784    9.2005507    9.2005507    9.2005507     69.00364 
   21600     300.6306   -10472.784            0   -9577.5579    750.65728    781.84919    9.2124328    9.2124328    9.2124328    55.475071 
   21700    291.41996   -10437.895            0   -9570.0959    3232.0224    785.28549    9.2259095    9.2259095    9.2259095    85.937477 
   21800    308.15457   -10484.847            0   -9567.2156    7394.5261    788.68109    9.2391881    9.2391881    9.2391881     79.21145 
   21900    305.20376   -10473.799            0   -9564.9547   -2202.8497    791.83095    9.2514717    9.2514717    9.2514717    70.087498 
   22000    311.35852   -10492.494            0   -9565.3216   -10232.635    794.59982    9.2622426    9.2622426    9.2622426    79.491721 
Loop time of 13.5691 on 16 procs for 1000 steps with 1000 atoms

Performance: 6.367 ns/day, 3.769 hours/ns, 73.697 timesteps/s
94.9% CPU use with 16 MPI tasks x no OpenMP threads

MPI task timing breakdown:
Section |  min time  |  avg time  |  max time  |%varavg| %total
---------------------------------------------------------------
Pair    | 1.4653     | 1.5716     | 1.8882     |   8.1 | 11.58
Neigh   | 0.60316    | 0.63745    | 0.72914    |   3.8 |  4.70
Comm    | 0.64496    | 1.0534     | 1.1934     |  12.8 |  7.76
Output  | 6.8819     | 7.0967     | 10.265     |  30.7 | 52.30
Modify  | 0.03252    | 3.2015     | 3.4164     |  45.7 | 23.59
Other   |            | 0.00854    |            |       |  0.06

Nlocal:    62.5 ave 71 max 57 min
Histogram: 2 2 1 3 4 2 0 0 1 1
Nghost:    1836.25 ave 1853 max 1820 min
Histogram: 1 1 3 4 1 2 0 0 0 4
Neighs:    0 ave 0 max 0 min
Histogram: 16 0 0 0 0 0 0 0 0 0
FullNghs:  18555 ave 21086 max 16770 min
Histogram: 2 2 1 3 4 2 0 0 1 1

Total # of neighbors = 296880
Ave neighs/atom = 296.88
Neighbor list builds = 1000
Dangerous builds not checked
Setting up Verlet run ...
  Unit style    : real
  Current step  : 22000
  Time step     : 1
Per MPI rank memory allocation (min/avg/max) = 4.577 | 4.578 | 4.58 Mbytes
Step Temp E_pair E_mol TotEng Press Volume Lx Ly Lz S/CPU 
   22000    311.35852   -10492.494            0   -9565.3216   -10232.635    794.59982    9.2622426    9.2622426    9.2622426            0 
   22100    290.49067   -10429.455            0   -9564.4234     289.3502     797.0037    9.2715735    9.2715735    9.2715735    65.774022 
   22200    291.12655   -10431.304            0   -9564.3791   -11582.076    798.86981    9.2788041    9.2788041    9.2788041    68.548734 
   22300    302.13672   -10464.397            0    -9564.685   -9453.8927    799.67782    9.2819313    9.2819313    9.2819313    71.345301 
   22400    309.20855   -10486.052            0    -9565.282   -22461.661    799.48642    9.2811907    9.2811907    9.2811907    88.709375 
   22500    304.29702   -10471.134            0   -9564.9897   -14325.671    798.08127    9.2757501    9.2757501    9.2757501    65.366111 
   22600    306.36004   -10477.829            0   -9565.5409    -3214.184    795.87948    9.2672121    9.2672121    9.2672121    85.296274 
   22700    303.44039   -10471.527            0   -9567.9335    2638.4996    793.47688    9.2578774    9.2578774    9.2578774    71.018794 
   22800    309.87578   -10495.019            0   -9572.2622    3001.9109    791.17268    9.2489073    9.2489073    9.2489073    69.893473 
   22900    304.29458   -10484.508            0   -9578.3711    5199.6562    788.62261    9.2389597    9.2389597    9.2389597    92.381438 
   23000    312.23896   -10516.777            0   -9586.9822    10282.501    785.52439     9.226845     9.226845     9.226845    75.357657 
Loop time of 13.4586 on 16 procs for 1000 steps with 1000 atoms

Performance: 6.420 ns/day, 3.739 hours/ns, 74.302 timesteps/s
94.9% CPU use with 16 MPI tasks x no OpenMP threads

MPI task timing breakdown:
Section |  min time  |  avg time  |  max time  |%varavg| %total
---------------------------------------------------------------
Pair    | 1.3385     | 1.5285     | 1.7451     |   7.4 | 11.36
Neigh   | 0.5859     | 0.63673    | 0.71058    |   3.4 |  4.73
Comm    | 0.74648    | 1.0372     | 1.2783     |  11.4 |  7.71
Output  | 6.286      | 6.5346     | 10.211     |  37.1 | 48.55
Modify  | 0.036739   | 3.7131     | 3.9623     |  49.3 | 27.59
Other   |            | 0.008476   |            |       |  0.06

Nlocal:    62.5 ave 69 max 58 min
Histogram: 4 2 0 2 1 2 2 2 0 1
Nghost:    1849.75 ave 1872 max 1827 min
Histogram: 2 1 0 3 2 2 1 2 1 2
Neighs:    0 ave 0 max 0 min
Histogram: 16 0 0 0 0 0 0 0 0 0
FullNghs:  18795.9 ave 20840 max 17201 min
Histogram: 2 3 1 2 0 2 3 2 0 1

Total # of neighbors = 300734
Ave neighs/atom = 300.734
Neighbor list builds = 1000
Dangerous builds not checked
Setting up Verlet run ...
  Unit style    : real
  Current step  : 23000
  Time step     : 1
Per MPI rank memory allocation (min/avg/max) = 4.577 | 4.578 | 4.58 Mbytes
Step Temp E_pair E_mol TotEng Press Volume Lx Ly Lz S/CPU 
   23000    312.23896   -10516.777            0   -9586.9822    10282.501    785.52439     9.226845     9.226845     9.226845            0 
   23100    298.36732   -10486.714            0   -9598.2275     32.76327    782.24289    9.2139788    9.2139788    9.2139788    62.427974 
   23200    311.19307   -10538.174            0   -9611.4941    -94.35056     778.8106    9.2004828    9.2004828    9.2004828     93.61701 
   23300    301.29848   -10520.476            0   -9623.2605    20860.192     775.9823    9.1893319    9.1893319    9.1893319     80.20675 
   23400     308.0762   -10551.951            0   -9634.5525    13093.803     774.1345    9.1820321    9.1820321    9.1820321    60.639102 
   23500    305.45134   -10553.339            0   -9643.7572    1360.9682    773.18784    9.1782878    9.1782878    9.1782878    87.579874 
   23600    300.11585   -10543.539            0    -9649.845    6789.8443    773.05344     9.177756     9.177756     9.177756    87.690708 
   23700    296.89571   -10537.553            0   -9653.4487    7343.2233    773.57461     9.179818     9.179818     9.179818    55.186176 
   23800    286.84658   -10511.249            0    -9657.069    25187.729    774.76355    9.1845185    9.1845185    9.1845185    91.615081 
   23900    311.27108   -10587.213            0    -9660.301    13228.977     776.9832    9.1932812    9.1932812    9.1932812    92.015067 
   24000    296.79423   -10544.164            0   -9660.3618   -9676.4579    779.90594     9.204794     9.204794     9.204794    54.683289 
Loop time of 13.6672 on 16 procs for 1000 steps with 1000 atoms

Performance: 6.322 ns/day, 3.796 hours/ns, 73.168 timesteps/s
94.9% CPU use with 16 MPI tasks x no OpenMP threads

MPI task timing breakdown:
Section |  min time  |  avg time  |  max time  |%varavg| %total
---------------------------------------------------------------
Pair    | 1.401      | 1.583      | 1.8773     |   8.8 | 11.58
Neigh   | 0.58862    | 0.63708    | 0.72698    |   3.8 |  4.66
Comm    | 0.70892    | 1.0927     | 1.323      |  13.4 |  8.00
Output  | 7.0391     | 7.2471     | 10.313     |  29.4 | 53.03
Modify  | 0.032076   | 3.0986     | 3.3069     |  45.0 | 22.67
Other   |            | 0.00856    |            |       |  0.06

Nlocal:    62.5 ave 71 max 57 min
Histogram: 2 0 7 1 1 1 2 1 0 1
Nghost:    1857.88 ave 1869 max 1846 min
Histogram: 1 2 0 3 1 2 3 1 1 2
Neighs:    0 ave 0 max 0 min
Histogram: 16 0 0 0 0 0 0 0 0 0
FullNghs:  18925.6 ave 21607 max 17355 min
Histogram: 2 1 5 2 2 1 1 0 1 1

Total # of neighbors = 302810
Ave neighs/atom = 302.81
Neighbor list builds = 1000
Dangerous builds not checked
Setting up Verlet run ...
  Unit style    : real
  Current step  : 24000
  Time step     : 1
Per MPI rank memory allocation (min/avg/max) = 4.577 | 4.578 | 4.58 Mbytes
Step Temp E_pair E_mol TotEng Press Volume Lx Ly Lz S/CPU 
   24000    296.79423   -10544.164            0   -9660.3618   -9676.4579    779.90594     9.204794     9.204794     9.204794            0 
   24100    293.47891   -10532.482            0   -9658.5519   -5395.1222    782.93153    9.2166818    9.2166818    9.2166818     82.63509 
   24200     286.4625   -10508.459            0   -9655.4225   -24643.606    785.52948    9.2268649    9.2268649    9.2268649    86.549134 
   24300    293.80836   -10525.627            0   -9650.7159    1706.9896    786.97892    9.2325365    9.2325365    9.2325365    59.169493 
   24400    297.28607   -10529.857            0   -9644.5898    9422.2636    787.71455    9.2354123    9.2354123    9.2354123    92.309066 
   24500    294.83198   -10516.854            0    -9638.895    9073.1847    788.41606    9.2381531    9.2381531    9.2381531     78.38258 
   24600    293.96893   -10505.641            0   -9630.2519    335.34404    789.26455    9.2414659    9.2414659    9.2414659    69.900368 
   24700    294.70208   -10500.235            0   -9622.6626   -14275.482    789.70067    9.2431678    9.2431678    9.2431678    77.998785 
   24800    302.26754    -10514.45            0   -9614.3488   -2525.4234    789.26749    9.2414774    9.2414774    9.2414774    77.222705 
   24900    293.76741   -10479.103            0   -9604.3134    4572.2772    788.68401    9.2391995    9.2391995    9.2391995     56.64331 
   25000    292.39431   -10468.162            0   -9597.4617   -920.72628    788.23836     9.237459     9.237459     9.237459    88.443127 
Loop time of 13.3185 on 16 procs for 1000 steps with 1000 atoms

Performance: 6.487 ns/day, 3.700 hours/ns, 75.084 timesteps/s
94.9% CPU use with 16 MPI tasks x no OpenMP threads

MPI task timing breakdown:
Section |  min time  |  avg time  |  max time  |%varavg| %total
---------------------------------------------------------------
Pair    | 1.4478     | 1.5484     | 1.7963     |   6.5 | 11.63
Neigh   | 0.60017    | 0.63678    | 0.71035    |   3.2 |  4.78
Comm    | 0.72464    | 1.0455     | 1.1826     |  10.2 |  7.85
Output  | 6.5767     | 6.7968     | 10.045     |  32.2 | 51.03
Modify  | 0.033403   | 3.2826     | 3.5034     |  46.3 | 24.65
Other   |            | 0.0085     |            |       |  0.06

Nlocal:    62.5 ave 70 max 58 min
Histogram: 5 3 0 1 1 1 1 1 2 1
Nghost:    1845.81 ave 1867 max 1818 min
Histogram: 1 1 2 2 1 1 0 4 3 1
Neighs:    0 ave 0 max 0 min
Histogram: 16 0 0 0 0 0 0 0 0 0
FullNghs:  18708.6 ave 21070 max 17151 min
Histogram: 3 4 1 1 1 2 0 0 3 1

Total # of neighbors = 299338
Ave neighs/atom = 299.338
Neighbor list builds = 1000
Dangerous builds not checked
Setting up Verlet run ...
  Unit style    : real
  Current step  : 25000
  Time step     : 1
Per MPI rank memory allocation (min/avg/max) = 4.577 | 4.578 | 4.58 Mbytes
Step Temp E_pair E_mol TotEng Press Volume Lx Ly Lz S/CPU 
   25000    292.39431   -10468.162            0   -9597.4617   -920.72628    788.23836     9.237459     9.237459     9.237459            0 
   25100    302.24017   -10491.858            0   -9591.8379   -3634.3708    787.65078    9.2351631    9.2351631    9.2351631    83.179047 
   25200    311.66813   -10514.343            0   -9586.2488   -1342.5054    786.87569    9.2321328    9.2321328    9.2321328    54.237959 
   25300    307.45175   -10499.416            0   -9583.8774   -10315.058    785.88579    9.2282598    9.2282598    9.2282598    91.788079 
   25400    301.53315   -10479.384            0   -9581.4698   -5350.1444    784.47632    9.2227396    9.2227396    9.2227396    88.897248 
   25500    302.22979   -10480.385            0   -9580.3963      -3962.5    782.91661    9.2166233    9.2166233    9.2166233     73.26963 
   25600    310.41994   -10505.369            0   -9580.9913    16738.844    781.28437    9.2102138    9.2102138    9.2102138    88.740981 
   25700    304.26151   -10487.378            0    -9581.339    2256.3564    779.71008    9.2040234    9.2040234    9.2040234    85.388868 
   25800    288.26982    -10439.79            0   -9581.3717    15399.937    778.45457    9.1990806    9.1990806    9.1990806    66.919146 
   25900    308.41316   -10502.356            0   -9583.9546     10022.91    777.82434    9.1965974    9.1965974    9.1965974    86.110749 
   26000    304.91249   -10492.639            0   -9584.6613    21681.455     777.7624    9.1963533    9.1963533    9.1963533    83.732156 
Loop time of 12.7731 on 16 procs for 1000 steps with 1000 atoms

Performance: 6.764 ns/day, 3.548 hours/ns, 78.290 timesteps/s
95.0% CPU use with 16 MPI tasks x no OpenMP threads

MPI task timing breakdown:
Section |  min time  |  avg time  |  max time  |%varavg| %total
---------------------------------------------------------------
Pair    | 1.4609     | 1.5554     | 1.9066     |   8.4 | 12.18
Neigh   | 0.60634    | 0.63371    | 0.7284     |   3.7 |  4.96
Comm    | 0.64504    | 1.0906     | 1.2113     |  12.8 |  8.54
Output  | 6.5995     | 6.7811     | 9.4525     |  26.5 | 53.09
Modify  | 0.031269   | 2.7037     | 2.8855     |  42.0 | 21.17
Other   |            | 0.008518   |            |       |  0.07

Nlocal:    62.5 ave 71 max 58 min
Histogram: 3 2 2 5 1 0 1 0 0 2
Nghost:    1866.75 ave 1884 max 1851 min
Histogram: 2 2 2 2 0 2 2 1 1 2
Neighs:    0 ave 0 max 0 min
Histogram: 16 0 0 0 0 0 0 0 0 0
FullNghs:  18986.9 ave 21701 max 17434 min
Histogram: 2 2 2 6 1 0 0 1 0 2

Total # of neighbors = 303790
Ave neighs/atom = 303.79
Neighbor list builds = 1000
Dangerous builds not checked
Setting up Verlet run ...
  Unit style    : real
  Current step  : 26000
  Time step     : 1
Per MPI rank memory allocation (min/avg/max) = 4.577 | 4.578 | 4.58 Mbytes
Step Temp E_pair E_mol TotEng Press Volume Lx Ly Lz S/CPU 
   26000    304.91249   -10492.639            0   -9584.6613    21681.455     777.7624    9.1963533    9.1963533    9.1963533            0 
   26100    296.62546   -10469.625            0   -9586.3249    -233.1294    778.56033    9.1994972    9.1994972    9.1994972    59.489316 
   26200    291.13972   -10455.627            0   -9588.6629    3226.3191    780.05343    9.2053743    9.2053743    9.2053743    78.917846 
   26300    300.01545   -10485.977            0   -9592.5826    298.55607    782.15431     9.213631     9.213631     9.213631    86.072644 
   26400    298.92477    -10487.45            0   -9597.3032    3490.6996    784.67203    9.2235065    9.2235065    9.2235065    60.779649 
   26500    307.52164   -10519.955            0   -9604.2077   -2600.3707    787.47132    9.2344617    9.2344617    9.2344617    90.348836 
   26600    292.75285   -10482.087            0   -9610.3189   -1640.8068    789.99813    9.2443282    9.2443282    9.2443282    89.147557 
   26700    303.26333   -10522.745            0   -9619.6781   -6321.9093    791.86471    9.2516032    9.2516032    9.2516032    66.984576 
   26800    287.73869   -10486.977            0   -9630.1399   -4672.7623    792.83405    9.2553767    9.2553767    9.2553767    77.156685 
   26900    292.33341   -10512.075            0   -9641.5565   -19106.685    793.13649    9.2565534    9.2565534    9.2565534    68.417309 
   27000    286.68994   -10507.933            0   -9654.2189   -19451.512    792.57076     9.254352     9.254352     9.254352    68.624331 
Loop time of 13.6916 on 16 procs for 1000 steps with 1000 atoms

Performance: 6.310 ns/day, 3.803 hours/ns, 73.038 timesteps/s
94.9% CPU use with 16 MPI tasks x no OpenMP threads

MPI task timing breakdown:
Section |  min time  |  avg time  |  max time  |%varavg| %total
---------------------------------------------------------------
Pair    | 1.4137     | 1.5638     | 1.9168     |   9.4 | 11.42
Neigh   | 0.59351    | 0.64087    | 0.73874    |   4.0 |  4.68
Comm    | 0.61884    | 1.0698     | 1.267      |  14.3 |  7.81
Output  | 6.8005     | 7.0274     | 10.377     |  32.6 | 51.33
Modify  | 0.030927   | 3.3812     | 3.6081     |  47.0 | 24.70
Other   |            | 0.008538   |            |       |  0.06

Nlocal:    62.5 ave 71 max 58 min
Histogram: 4 3 1 3 2 0 0 1 0 2
Nghost:    1848.88 ave 1869 max 1833 min
Histogram: 2 2 3 1 1 2 1 2 0 2
Neighs:    0 ave 0 max 0 min
Histogram: 16 0 0 0 0 0 0 0 0 0
FullNghs:  18633 ave 21410 max 17134 min
Histogram: 3 4 1 3 1 1 0 1 1 1

Total # of neighbors = 298128
Ave neighs/atom = 298.128
Neighbor list builds = 1000
Dangerous builds not checked
Setting up Verlet run ...
  Unit style    : real
  Current step  : 27000
  Time step     : 1
Per MPI rank memory allocation (min/avg/max) = 4.577 | 4.578 | 4.58 Mbytes
Step Temp E_pair E_mol TotEng Press Volume Lx Ly Lz S/CPU 
   27000    286.68994   -10507.933            0   -9654.2189   -19451.512    792.57076     9.254352     9.254352     9.254352            0 
   27100    277.58154   -10492.242            0   -9665.6516   -5255.4123    790.65468    9.2468884    9.2468884    9.2468884    84.099365 
   27200    287.14921   -10531.047            0   -9675.9654   -21369.842    787.75478    9.2355695    9.2355695    9.2355695     83.88802 
   27300    283.40487   -10525.673            0   -9681.7417   -1213.5504    783.60134    9.2193094    9.2193094    9.2193094    61.806958 
   27400    282.59824   -10525.621            0   -9684.0916    3400.0238    778.93498    9.2009726    9.2009726    9.2009726    67.281486 
   27500     293.8009   -10560.608            0    -9685.719     4029.621    774.20943    9.1823284    9.1823284    9.1823284    68.561625 
   27600    302.20823    -10583.21            0   -9683.2856    30869.966    769.52955    9.1637894    9.1637894    9.1637894    57.546142 
   27700    287.66746   -10533.462            0   -9676.8372     29367.01    766.32041    9.1510332    9.1510332    9.1510332    86.605504 
   27800    296.86855   -10553.201            0   -9669.1775    32774.457    765.10792    9.1462043    9.1462043    9.1462043    75.951995 
   27900    304.76429   -10567.544            0   -9660.0079    31571.581    766.08567    9.1500987    9.1500987    9.1500987    60.277246 
   28000     296.8239   -10529.724            0   -9645.8333    33288.868    769.03038    9.1618076    9.1618076    9.1618076    84.834919 
Loop time of 13.9907 on 16 procs for 1000 steps with 1000 atoms

Performance: 6.176 ns/day, 3.886 hours/ns, 71.476 timesteps/s
[...]
  332700    308.73176   -11510.205            0   -10590.855   -5717.6239    728.54402    8.9981231    8.9981231    8.9981231    83.345648 
  332800    309.57554   -11509.893            0    -10588.03   -14181.166     730.2716    9.0052299    9.0052299    9.0052299    63.283228 
  332900    309.70499   -11506.774            0   -10584.525   -25135.109    731.31572    9.0095196    9.0095196    9.0095196    57.681253 
  333000    309.74796   -11506.498            0   -10584.121   -23814.846    731.30778     9.009487     9.009487     9.009487    70.415502 
  333100    307.29688   -11500.784            0   -10585.707   -4220.7658    730.07084    9.0044046    9.0044046    9.0044046    61.644146 
  333200    303.84523   -11493.452            0   -10588.653    -9874.518    727.77355      8.99495      8.99495      8.99495    62.698867 
  333300    306.35091    -11507.91            0    -10595.65   -2619.4428    724.97534     8.983407     8.983407     8.983407     75.97177 
  333400    304.72166   -11512.972            0   -10605.563    27071.068    722.34055     8.972511     8.972511     8.972511    52.617466 
  333500    316.85951   -11563.232            0   -10619.678    22501.721    720.86725    8.9664066    8.9664066    8.9664066    82.865656 
  333600    306.30253   -11545.632            0   -10633.515    21772.034    720.78137    8.9660506    8.9660506    8.9660506    81.257939 
  333700    308.51727   -11566.284            0   -10647.572    20429.815    722.03971    8.9712652    8.9712652    8.9712652    59.011037 
  333800    305.58148    -11567.92            0   -10657.951    4185.5346    724.58708    8.9818031    8.9818031    8.9818031    76.257019 
  333900     308.2176   -11583.573            0   -10665.754    -13229.53    727.54757     8.994019     8.994019     8.994019    85.199458 
  334000    304.67799   -11578.028            0   -10670.749   -27321.174    729.78333    9.0032224    9.0032224    9.0032224    60.038202 
  334100    296.73056   -11557.034            0   -10673.421   -26647.612    730.64288    9.0067557    9.0067557    9.0067557    78.343211 
  334200    287.31891   -11530.988            0   -10675.401   -33697.752    729.78529    9.0032305    9.0032305    9.0032305    72.243901 
  334300    297.13414   -11562.316            0   -10677.502   -16114.561    727.21862    8.9926633    8.9926633    8.9926633    61.859831 
  334400    295.91255   -11558.287            0    -10677.11    -6118.363    723.76006    8.9783846    8.9783846    8.9783846    94.203467 
  334500    296.39272   -11557.679            0   -10675.072    28077.351    720.53834    8.9650427    8.9650427    8.9650427    80.938406 
  334600    307.23098   -11588.307            0   -10673.426    32153.018    718.71935    8.9574923    8.9574923    8.9574923    60.869295 
  334700    295.25215   -11548.905            0   -10669.694    32113.074    719.11593    8.9591396    8.9591396    8.9591396     87.67467 
  334800    297.64111    -11554.47            0   -10668.146    11385.764     721.6166    8.9695125    8.9695125    8.9695125    78.765709 
  334900    293.11901   -11537.243            0   -10664.385    -3137.479    725.31573    8.9848128    8.9848128    8.9848128    52.772001 
  335000     300.5227    -11553.11            0   -10658.204   -17287.347    729.04359    9.0001794    9.0001794    9.0001794    84.862394 
  335100    288.92673   -11510.504            0   -10650.129   -31576.439     731.6579    9.0109246    9.0109246    9.0109246    83.873779 
  335200    299.93608    -11533.38            0   -10640.221   -37820.368    732.42816    9.0140856    9.0140856    9.0140856    57.106974 
  335300    300.24519   -11522.914            0   -10628.835   -19597.211    731.13659     9.008784     9.008784     9.008784    90.995919 
  335400    309.55965   -11538.925            0   -10617.109   -747.49045     728.2813    8.9970414    8.9970414    8.9970414    63.909734 
  335500    318.64062    -11553.95            0   -10605.093    5296.0388    724.89779    8.9830867    8.9830867    8.9830867    75.552847 
  335600    305.83709   -11505.458            0   -10594.727    18034.659    722.02355    8.9711982    8.9711982    8.9711982    78.121151 
  335700    308.25427   -11506.095            0   -10588.166    26652.694    720.56474    8.9651522    8.9651522    8.9651522    60.490205 
  335800    308.12058   -11502.326            0   -10584.795    32657.086     721.0781    8.9672808    8.9672808    8.9672808    86.609028 
  335900    312.62565   -11516.925            0   -10585.979    17994.871    723.40255     8.976906     8.976906     8.976906    57.267216 
  336000    303.73259    -11491.45            0   -10586.986   -1406.9518    726.83079    8.9910643    8.9910643    8.9910643     59.52352 
  336100    302.52569   -11491.207            0   -10590.337   -9755.8735     730.3869    9.0057038    9.0057038    9.0057038    93.275425 
  336200    301.41831   -11489.066            0   -10591.494   -23673.596    733.28526    9.0176004    9.0176004    9.0176004    73.798368 
  336300    318.94307   -11544.685            0   -10594.927   -30795.717    734.73628    9.0235444    9.0235444    9.0235444    55.314267 
  336400    309.61408   -11519.049            0   -10597.071   -32854.358    734.08693    9.0208854    9.0208854    9.0208854    87.719169 
  336500    304.14714   -11505.881            0   -10600.183   -29299.803    731.32924    9.0095752    9.0095752    9.0095752    71.263375 
  336600    303.42583   -11508.601            0   -10605.051   -12138.921    727.23867    8.9927459    8.9927459    8.9927459    68.687617 
  336700    308.82671   -11527.506            0   -10607.873    18096.997    723.00811    8.9752742    8.9752742    8.9752742    79.858218 
  336800    300.80698   -11505.561            0   -10609.809    30478.794    720.02554    8.9629155    8.9629155    8.9629155    74.845028 
  336900    304.16055   -11518.918            0    -10613.18    39867.378    718.98302    8.9585876    8.9585876    8.9585876    69.157261 
  337000    311.83332   -11547.089            0   -10618.502    34760.208     720.0577    8.9630489    8.9630489    8.9630489    87.318614 
  337100    298.78442   -11514.243            0   -10624.514    21564.436    722.76781    8.9742797    8.9742797    8.9742797    69.865828 
  337200    306.76481   -11545.077            0   -10631.584   -6721.4982    726.24624    8.9886534    8.9886534    8.9886534    67.702041 
  337300     301.8407   -11536.991            0   -10638.161   -23171.766    729.21547    9.0008866    9.0008866    9.0008866    66.358531 
  337400    310.66627   -11569.036            0   -10643.925   -15760.053    730.82727    9.0075133    9.0075133    9.0075133    67.746959 
  337500    297.90939   -11533.643            0   -10646.519   -16016.493    731.06205    9.0084778    9.0084778    9.0084778    82.343778 
  337600    296.49852   -11533.185            0   -10650.263   -24511.461     729.8199    9.0033728    9.0033728    9.0033728    71.400015 
  337700    293.09497   -11525.262            0   -10652.475   -6294.1982    727.34787     8.993196     8.993196     8.993196    79.372866 
  337800    305.72182   -11564.738            0    -10654.35   -2915.7214    724.65925    8.9821013    8.9821013    8.9821013     61.69395 
  337900    300.80229   -11549.785            0   -10654.047    25465.885    722.47681    8.9730751    8.9730751    8.9730751     74.23455 
  338000    301.21853   -11552.407            0    -10655.43    15406.446    721.33367    8.9683401    8.9683401    8.9683401    62.513358 
  338100    301.73302   -11552.626            0   -10654.116    25324.443    721.63876    8.9696043    8.9696043    8.9696043    72.075401 
  338200    298.53461   -11543.224            0   -10654.239    21756.728    723.11656    8.9757229    8.9757229    8.9757229    93.044244 
  338300    295.33012    -11532.55            0   -10653.108    -1864.488    725.14644    8.9841137    8.9841137    8.9841137    69.914328 
  338400    306.18927   -11565.098            0   -10653.318   -5579.0599     727.0555    8.9919908    8.9919908    8.9919908    79.622479 
  338500    297.32883   -11537.661            0   -10652.267   -9232.2269    728.88259    8.9995168    8.9995168    8.9995168    66.090557 
  338600    304.11612    -11555.72            0   -10650.114   -20739.859    730.08098    9.0044463    9.0044463    9.0044463    56.989282 
  338700    308.68281       -11568            0   -10648.795    -25334.85    730.08045    9.0044441    9.0044441    9.0044441    84.128402 
  338800    287.36362   -11500.235            0   -10644.515   -22386.419    728.91841    8.9996642    8.9996642    8.9996642    69.099787 
  338900    286.26806   -11494.513            0   -10642.056   -1022.6869    726.88286     8.991279     8.991279     8.991279    70.903529 
  339000     310.5754   -11566.244            0   -10641.404    3401.6312    724.69083    8.9822317    8.9822317    8.9822317    72.939703 
  339100    299.84778    -11531.76            0   -10638.865    29725.665    722.84704    8.9746076    8.9746076    8.9746076    82.249015 
  339200    296.28466   -11519.781            0   -10637.496    19667.691    722.11842    8.9715911    8.9715911    8.9715911     77.07005 
  339300     310.1777     -11562.9            0   -10639.244    25307.456    722.49014    8.9731303    8.9731303    8.9731303    79.957687 
  339400    294.59046   -11517.096            0   -10639.856    10958.777    723.84679    8.9787432    8.9787432    8.9787432    61.735381 
  339500    305.61504   -11552.733            0   -10642.663   -9017.1061    725.54236    8.9857485    8.9857485    8.9857485    69.699993 
  339600    301.09829   -11541.694            0   -10645.075   -2980.2514    727.09645    8.9921596    8.9921596    8.9921596    87.144561 
  339700    304.70253   -11555.993            0    -10648.64   -17945.224    728.08802    8.9962454    8.9962454    8.9962454    71.350639 
  339800    300.09959   -11545.619            0   -10651.974   -2773.7888     728.1055    8.9963174    8.9963174    8.9963174    78.083195 
  339900     298.6856   -11546.387            0   -10656.952    -16928.07    727.30628    8.9930245    8.9930245    8.9930245    75.968317 
  340000    311.42616   -11592.675            0   -10665.301    -3174.817    725.83369     8.986951     8.986951     8.986951    58.342297 
  340100    304.44466   -11579.608            0   -10673.024    1336.8072    724.28283    8.9805457    8.9805457    8.9805457    83.464198 
  340200    298.89934   -11574.606            0   -10684.535    3004.0874    722.95603    8.9750587    8.9750587    8.9750587    85.803711 
  340300    294.03249   -11572.809            0    -10697.23    11147.655     721.8835    8.9706182    8.9706182    8.9706182    61.301836 
  340400    288.06632   -11567.206            0   -10709.394    11329.078     721.5341    8.9691706    8.9691706    8.9691706    66.457671 
  340500    291.32843   -11588.652            0   -10721.126   -1177.2986    722.15241    8.9717319    8.9717319    8.9717319    92.084455 
  340600    292.81427   -11601.657            0   -10729.706    3218.4859    723.06462     8.975508     8.975508     8.975508    61.136428 
  340700    288.38882   -11592.723            0    -10733.95   -4841.4083    724.07126    8.9796712    8.9796712    8.9796712    81.821484 
  340800    299.48628   -11628.876            0   -10737.057   -3257.9435    725.00236    8.9835186    8.9835186    8.9835186    87.618382 
  340900    283.04916   -11579.074            0   -10736.202   -14808.378    725.53692     8.985726     8.985726     8.985726    61.613956 
  341000    279.99306   -11565.002            0   -10731.231   -262.85323    725.54997    8.9857799    8.9857799    8.9857799    100.22459 
  341100    292.40528   -11596.899            0   -10726.166    961.50292    725.30999    8.9847891    8.9847891    8.9847891    52.239433 
  341200    279.27669   -11548.774            0   -10717.135    2940.6729    724.89769    8.9830863    8.9830863    8.9830863    77.360678 
  341300    292.65453   -11579.704            0   -10708.229   -2815.8395    724.52579    8.9815498    8.9815498    8.9815498    78.611543 
  341400    290.97672   -11564.408            0   -10697.929    366.87091    724.19959    8.9802017    8.9802017    8.9802017     63.20245 
  341500    297.12348   -11574.306            0   -10689.523    -165.0519    723.98137    8.9792996    8.9792996    8.9792996    60.478549 
  341600    298.48658   -11570.893            0   -10682.051    7911.6156    723.79047    8.9785103    8.9785103    8.9785103    81.941555 
  341700    304.88643    -11584.21            0    -10676.31     4409.504     723.9477    8.9791604    8.9791604    8.9791604    68.322859 
  341800    298.52298   -11560.863            0   -10671.913    3593.6462    724.31748     8.980689     8.980689     8.980689     77.63187 
  341900    292.90946   -11540.057            0   -10667.823    4568.1655     724.9308    8.9832231    8.9832231    8.9832231    73.113434 
  342000    300.41467   -11559.867            0   -10665.283   -13864.582    725.72696    8.9865105    8.9865105    8.9865105    59.387936 
  342100    294.13853   -11535.246            0   -10659.351      1657.74    726.30822    8.9889091    8.9889091    8.9889091    89.172124 
  342200    290.34935   -11520.155            0   -10655.544    11.950695    726.69991    8.9905246    8.9905246    8.9905246    86.369176 
  342300    288.74447   -11509.348            0   -10649.516   -11678.044    726.92758    8.9914634    8.9914634    8.9914634    66.576167 
  342400    295.00006   -11523.843            0   -10645.383   -7016.9249    726.73144    8.9906546    8.9906546    8.9906546    88.041499 
  342500    301.62096   -11538.546            0   -10640.371    -7215.769    726.06819    8.9879187    8.9879187    8.9879187    83.123185 
  342600    318.15904   -11584.026            0   -10636.603   -12734.143    725.10384    8.9839378    8.9839378    8.9839378    55.414188 
  342700    297.33668   -11517.135            0   -10631.717    5655.1065    723.86692    8.9788264    8.9788264    8.9788264     71.95436 
  342800    302.67336   -11528.811            0   -10627.501    8651.1907    722.88659    8.9747713    8.9747713    8.9747713    73.833087 
  342900    302.82165   -11527.869            0   -10626.118    19171.357    722.72033    8.9740832    8.9740832    8.9740832    72.725105 
  343000    316.49591   -11567.511            0   -10625.041    9030.7406    723.35581    8.9767127    8.9767127    8.9767127    88.687582 
  343100    302.84304   -11525.874            0   -10624.059    14363.102    724.59711    8.9818445    8.9818445    8.9818445    69.140531 
  343200    314.20973    -11562.23            0   -10626.567   -5676.6933    726.51905    8.9897787    8.9897787    8.9897787    61.526887 
  343300    294.29777   -11504.609            0   -10628.241   -3044.1337    728.46771     8.997809     8.997809     8.997809       83.109 
  343400    299.19231   -11524.015            0   -10633.072   -18741.075    729.91975    9.0037834    9.0037834    9.0037834    84.167286 
  343500    304.03404   -11544.353            0   -10638.992   -15045.638    730.38714    9.0057048    9.0057048    9.0057048    57.161851 
  343600    285.42505   -11495.735            0   -10645.788   -22428.252    729.82362    9.0033881    9.0033881    9.0033881    78.526265 
  343700    291.21598   -11522.961            0   -10655.769   -2279.6335    728.19657    8.9966925    8.9966925    8.9966925    60.676556 
  343800    300.63865    -11563.74            0   -10668.489    4574.1757    726.01282    8.9876902    8.9876902    8.9876902     65.75867 
  343900    295.98163   -11559.996            0   -10678.613    7459.5314    723.93226    8.9790966    8.9790966    8.9790966    73.826224 
  344000    304.54368   -11595.241            0   -10688.362    21015.726    722.37177    8.9726403    8.9726403    8.9726403    58.912872 
  344100    293.03122   -11567.975            0   -10695.379    25930.738    721.73309    8.9699951    8.9699951    8.9699951    78.451004 
  344200    294.86064   -11579.533            0   -10701.489    11569.806    722.20152    8.9719353    8.9719353    8.9719353    56.739802 
  344300    290.91842   -11571.821            0   -10705.516    4921.4885    723.45444    8.9771206    8.9771206    8.9771206     69.98964 
  344400    283.71943   -11552.456            0   -10707.588    782.33238    725.16482    8.9841896    8.9841896    8.9841896    84.587507 
  344500    298.62521   -11599.337            0   -10710.082   -18004.829    726.86322    8.9911981    8.9911981    8.9911981    87.153419 
  344600    288.79563   -11567.126            0   -10707.142   -3117.7146    727.87255    8.9953579    8.9953579    8.9953579    64.231513 
  344700    291.56022   -11572.961            0   -10704.745   -19650.543    727.98848    8.9958354    8.9958354    8.9958354    79.125309 
  344800    297.41999   -11585.298            0   -10699.632   -15127.114    727.08819    8.9921256    8.9921256    8.9921256    95.068774 
  344900     286.9368   -11545.038            0    -10690.59   -737.15319    725.45048    8.9853692    8.9853692    8.9853692    58.633194 
  345000    297.30261   -11565.469            0   -10680.153    9509.7314    723.68551    8.9780763    8.9780763    8.9780763    85.119191 
  345100    299.47273     -11557.1            0   -10665.321     5477.827    722.39014    8.9727163    8.9727163    8.9727163    83.513657 
  345200    305.82491    -11561.47            0   -10650.776    14714.933    721.82457    8.9703741    8.9703741    8.9703741    50.567088 
  345300    300.15069   -11532.735            0   -10638.937    14782.457    722.27865    8.9722547    8.9722547    8.9722547    83.149666 
  345400     306.4442   -11542.147            0   -10629.609     589.4349    723.59955    8.9777208    8.9777208    8.9777208     68.71002 
  345500     307.2349   -11540.222            0   -10625.328   -9978.9382    725.54275    8.9857501    8.9857501    8.9857501    69.175242 
  345600    295.94821   -11503.112            0   -10621.829   -13905.767    727.37605    8.9933121    8.9933121    8.9933121    74.410889 
  345700    299.68663   -11512.123            0   -10619.707    -6605.081     728.7311    8.9988933    8.9988933    8.9988933    70.350922 
  345800    296.77817   -11502.877            0   -10619.122   -11064.058    729.45772    9.0018832    9.0018832    9.0018832    68.210273 
  345900    314.81501   -11556.815            0   -10619.349   -11289.931    729.45478    9.0018711    9.0018711    9.0018711    94.020924 
  346000    292.76033   -11492.289            0   -10620.498   -8415.2353    728.82137    8.9992648    8.9992648    8.9992648    67.192501 
Loop time of 1426.66 on 16 procs for 100000 steps with 1000 atoms

Performance: 6.056 ns/day, 3.963 hours/ns, 70.094 timesteps/s
94.9% CPU use with 16 MPI tasks x no OpenMP threads

MPI task timing breakdown:
Section |  min time  |  avg time  |  max time  |%varavg| %total
---------------------------------------------------------------
Pair    | 152.46     | 175.29     | 193.26     | 108.2 | 12.29
Neigh   | 64.663     | 71.68      | 78.641     |  63.2 |  5.02
Comm    | 79.102     | 101.16     | 130.94     | 192.9 |  7.09
Output  | 710.53     | 733.53     | 1072.6     | 323.2 | 51.42
Modify  | 5.0632     | 344.09     | 367.07     | 471.9 | 24.12
Other   |            | 0.9008     |            |       |  0.06

Nlocal:    62.5 ave 75 max 55 min
Histogram: 5 1 2 0 0 3 3 0 1 1
Nghost:    1940.19 ave 1959 max 1922 min
Histogram: 3 2 0 1 2 1 1 3 0 3
Neighs:    0 ave 0 max 0 min
Histogram: 16 0 0 0 0 0 0 0 0 0
FullNghs:  20144.9 ave 24178 max 17628 min
Histogram: 5 1 2 0 0 4 2 0 1 1

Total # of neighbors = 322318
Ave neighs/atom = 322.318
Neighbor list builds = 100000
Dangerous builds not checked
Total wall time: 1:21:18
