LAMMPS (16 Mar 2018)
Reading data file ...
  orthogonal box = (-4.71036 -4.71036 -4.71036) to (4.71036 4.71036 4.71036)
  2 by 2 by 4 MPI processor grid
  reading atoms ...
  1000 atoms
Reading potential file /home/fs01/ajm529/lammps-16Mar18/potentials/sw_potentials/AG/eps2.23.sw with DATE: 2008-01-29
Neighbor list info ...
  update every 1 steps, delay 0 steps, check no
  max neighbors/atom: 2000, page size: 100000
  master list distance cutoff = 3.836
  ghost atom cutoff = 3.836
  binsize = 1.918, bins = 5 5 5
  1 neighbor lists, perpetual/occasional/extra = 1 0 0
  (1) pair sw, perpetual
      attributes: full, newton on
      pair build: full/bin/atomonly
      stencil: full/bin/3d
      bin: standard
Setting up Verlet run ...
  Unit style    : real
  Current step  : 0
  Time step     : 1
Per MPI rank memory allocation (min/avg/max) = 3.519 | 3.519 | 3.52 Mbytes
Step Temp E_pair E_mol TotEng Press Volume Lx Ly Lz S/CPU 
       0          300   -10142.629            0   -9249.2802   -30102.376    836.09022    9.4207262    9.4207262    9.4207262            0 
     100    329.93831   -10237.153            0   -9254.6526   -27457.819    834.42415    9.4144645    9.4144645    9.4144645    86.611489 
     200    331.29688   -10251.787            0   -9265.2413   -26981.906    829.72194    9.3967468    9.3967468    9.3967468    112.08534 
     300    327.08165    -10259.34            0   -9285.3462   -29066.302    822.60692    9.3698101    9.3698101    9.3698101    80.649134 
     400    331.80549   -10295.327            0   -9307.2666   -21108.065    813.70832    9.3359013    9.3359013    9.3359013    67.989816 
     500    326.04887   -10299.098            0   -9328.1801   -10618.744    804.22974    9.2995095    9.2995095    9.2995095    87.200486 
     600    332.59745   -10334.214            0   -9343.7957    4694.7163    795.30268    9.2649728    9.2649728    9.2649728    107.55361 
     700    323.11518   -10320.873            0   -9358.6908     18241.57    787.96617    9.2363956    9.2363956    9.2363956    74.415888 
     800    326.75615   -10347.778            0   -9374.7538    14379.819    782.45859    9.2148256    9.2148256    9.2148256    70.155001 
     900    324.28293   -10357.966            0   -9392.3072    19766.499    778.82663    9.2005459    9.2005459    9.2005459    77.873175 
    1000    329.62843   -10392.572            0   -9410.9949    22278.951    777.21638    9.1942007    9.1942007    9.1942007    104.88241 
Loop time of 11.8409 on 16 procs for 1000 steps with 1000 atoms

Performance: 7.297 ns/day, 3.289 hours/ns, 84.453 timesteps/s
94.8% CPU use with 16 MPI tasks x no OpenMP threads

MPI task timing breakdown:
Section |  min time  |  avg time  |  max time  |%varavg| %total
---------------------------------------------------------------
Pair    | 1.6122     | 1.6521     | 1.7173     |   2.4 | 13.95
Neigh   | 0.58451    | 0.60318    | 0.62567    |   1.5 |  5.09
Comm    | 0.44684    | 0.52102    | 0.57066    |   5.1 |  4.40
Output  | 6.0418     | 6.2323     | 9.0364     |  29.0 | 52.63
Modify  | 0.021094   | 2.8255     | 3.0161     |  43.1 | 23.86
Other   |            | 0.006862   |            |       |  0.06

Nlocal:    62.5 ave 67 max 58 min
Histogram: 1 1 2 3 1 1 4 0 2 1
Nghost:    1862.75 ave 1889 max 1841 min
Histogram: 1 1 1 5 2 2 1 2 0 1
Neighs:    0 ave 0 max 0 min
Histogram: 16 0 0 0 0 0 0 0 0 0
FullNghs:  18985.1 ave 20252 max 17591 min
Histogram: 1 1 2 3 1 1 3 1 0 3

Total # of neighbors = 303762
Ave neighs/atom = 303.762
Neighbor list builds = 1000
Dangerous builds not checked
Setting up Verlet run ...
  Unit style    : real
  Current step  : 1000
  Time step     : 1
Per MPI rank memory allocation (min/avg/max) = 3.52 | 4.279 | 4.579 Mbytes
Step Temp E_pair E_mol TotEng Press Volume Lx Ly Lz S/CPU 
    1000    329.62843   -10392.572            0   -9410.9949    22278.951    777.21638    9.1942007    9.1942007    9.1942007            0 
    1100    327.27962   -10405.004            0   -9430.4216     23153.81    777.22204    9.1942231    9.1942231    9.1942231    82.973086 
    1200    317.36291   -10394.364            0   -9449.3116    19241.483    778.64959    9.1998487    9.1998487    9.1998487    61.221067 
    1300    316.94518   -10410.828            0   -9467.0196    19122.486    780.96387    9.2089542    9.2089542    9.2089542     94.10046 
    1400    322.97236    -10447.37            0   -9485.6134    4490.0322     783.6572    9.2195285    9.2195285    9.2195285    82.780888 
    1500    300.98223   -10397.567            0   -9501.2934   -31.077017    786.64576    9.2312335    9.2312335    9.2312335    75.861933 
    1600    306.24911   -10429.906            0   -9517.9484   -11546.191    789.50878     9.242419     9.242419     9.242419    71.136182 
    1700    303.70269   -10436.947            0   -9532.5722   -10631.407    791.96598    9.2519976    9.2519976    9.2519976    90.394508 
    1800    301.38449   -10443.358            0   -9545.8869   -5414.2118    793.62092    9.2584376    9.2584376    9.2584376    78.697703 
    1900    305.39792   -10468.663            0   -9559.2398   -7091.5436    794.68717     9.262582     9.262582     9.262582    83.226676 
    2000    303.56559   -10473.482            0   -9569.5158   -15317.609    795.44744    9.2655349    9.2655349    9.2655349    73.845488 
Loop time of 12.766 on 16 procs for 1000 steps with 1000 atoms

Performance: 6.768 ns/day, 3.546 hours/ns, 78.333 timesteps/s
94.9% CPU use with 16 MPI tasks x no OpenMP threads

MPI task timing breakdown:
Section |  min time  |  avg time  |  max time  |%varavg| %total
---------------------------------------------------------------
Pair    | 1.6105     | 1.7301     | 1.8029     |   3.5 | 13.55
Neigh   | 0.58523    | 0.60872    | 0.63896    |   1.7 |  4.77
Comm    | 0.44026    | 0.54196    | 0.68454    |   7.4 |  4.25
Output  | 6.5357     | 6.7466     | 9.8573     |  30.9 | 52.85
Modify  | 0.020509   | 3.1317     | 3.3427     |  45.4 | 24.53
Other   |            | 0.00686    |            |       |  0.05

Nlocal:    62.5 ave 69 max 57 min
Histogram: 2 0 2 2 2 5 1 0 1 1
Nghost:    1823.69 ave 1838 max 1804 min
Histogram: 1 1 1 1 1 3 2 3 0 3
Neighs:    0 ave 0 max 0 min
Histogram: 16 0 0 0 0 0 0 0 0 0
FullNghs:  18547.8 ave 20593 max 16938 min
Histogram: 2 0 2 3 3 3 1 0 1 1

Total # of neighbors = 296764
Ave neighs/atom = 296.764
Neighbor list builds = 1000
Dangerous builds not checked
Setting up Verlet run ...
  Unit style    : real
  Current step  : 2000
  Time step     : 1
Per MPI rank memory allocation (min/avg/max) = 3.769 | 4.478 | 4.58 Mbytes
Step Temp E_pair E_mol TotEng Press Volume Lx Ly Lz S/CPU 
    2000    303.56559   -10473.482            0   -9569.5158   -15317.609    795.44744    9.2655349    9.2655349    9.2655349            0 
    2100    306.83387   -10493.938            0   -9580.2393    1624.8719    795.89648    9.2672781    9.2672781    9.2672781    80.531474 
    2200    301.10442   -10486.582            0   -9589.9445   -12599.913    795.86516    9.2671565    9.2671565    9.2671565    88.784773 
    2300    294.30195   -10475.108            0   -9598.7267   -18185.474    794.87253    9.2633022    9.2633022    9.2633022    96.821197 
    2400    298.89777   -10497.034            0   -9606.9674   -4428.6961    793.05898    9.2562518    9.2562518    9.2562518    78.126476 
    2500    304.59642   -10521.179            0   -9614.1429    4657.4359    790.75549    9.2472814    9.2472814    9.2472814     76.00909 
    2600    298.55792   -10510.047            0   -9620.9929   -10151.025    788.70433    9.2392789    9.2392789    9.2392789    101.51782 
    2700     286.5154   -10478.902            0   -9625.7082    17609.945    786.75775    9.2316715    9.2316715    9.2316715    102.88051 
    2800    296.55212   -10515.312            0   -9632.2299    7258.8052    785.63897    9.2272936    9.2272936    9.2272936    93.399013 
    2900    296.39983   -10519.913            0   -9637.2853    3032.6651    785.03639    9.2249339    9.2249339    9.2249339    68.003747 
    3000    286.68001   -10491.831            0   -9638.1471   -2281.0228    784.87072    9.2242849    9.2242849    9.2242849    76.003027 
Loop time of 11.8105 on 16 procs for 1000 steps with 1000 atoms

Performance: 7.316 ns/day, 3.281 hours/ns, 84.670 timesteps/s
94.9% CPU use with 16 MPI tasks x no OpenMP threads

MPI task timing breakdown:
Section |  min time  |  avg time  |  max time  |%varavg| %total
---------------------------------------------------------------
Pair    | 1.6113     | 1.6959     | 1.8312     |   4.9 | 14.36
Neigh   | 0.58651    | 0.60564    | 0.65065    |   2.3 |  5.13
Comm    | 0.32556    | 0.5057     | 0.60689    |  10.9 |  4.28
Output  | 5.5954     | 5.8097     | 8.9759     |  33.9 | 49.19
Modify  | 0.020536   | 3.1867     | 3.4011     |  45.8 | 26.98
Other   |            | 0.006813   |            |       |  0.06

Nlocal:    62.5 ave 67 max 57 min
Histogram: 2 2 0 2 0 0 1 1 6 2
Nghost:    1854.94 ave 1880 max 1834 min
Histogram: 1 2 2 1 4 2 0 2 1 1
Neighs:    0 ave 0 max 0 min
Histogram: 16 0 0 0 0 0 0 0 0 0
FullNghs:  18805.4 ave 20158 max 16985 min
Histogram: 2 2 0 2 0 0 1 3 4 2

Total # of neighbors = 300886
Ave neighs/atom = 300.886
Neighbor list builds = 1000
Dangerous builds not checked
Setting up Verlet run ...
  Unit style    : real
  Current step  : 3000
  Time step     : 1
Per MPI rank memory allocation (min/avg/max) = 3.77 | 4.528 | 4.58 Mbytes
Step Temp E_pair E_mol TotEng Press Volume Lx Ly Lz S/CPU 
    3000    286.68001   -10491.831            0   -9638.1471   -2281.0228    784.87072    9.2242849    9.2242849    9.2242849            0 
    3100    293.49791   -10515.715            0    -9641.728    10239.592    784.82559    9.2241081    9.2241081    9.2241081    77.157054 
    3200    299.35955   -10534.271            0   -9642.8292    1156.3065     785.1241    9.2252775    9.2252775    9.2252775    68.660385 
    3300    290.82509   -10508.477            0   -9642.4493   -5977.6405    785.41225    9.2264059    9.2264059    9.2264059    87.432913 
    3400    295.67772   -10523.056            0   -9642.5778   -3978.7085    785.61941     9.227217     9.227217     9.227217    78.147546 
    3500    294.71375   -10517.947            0   -9640.3394    -5473.001    785.77424    9.2278232    9.2278232    9.2278232    85.118814 
    3600    296.56674   -10519.468            0   -9636.3432   -12292.192    785.46585    9.2266158    9.2266158    9.2266158    63.777673 
    3700    293.95091   -10505.459            0   -9630.1234   -8082.3656    784.85141    9.2242093    9.2242093    9.2242093    74.970864 
    3800    310.28394   -10547.472            0   -9623.4998   -595.83878    783.82449    9.2201844    9.2201844    9.2201844    66.830035 
    3900    303.78562   -10520.461            0   -9615.8394   -758.27738    782.69377    9.2157487    9.2157487    9.2157487    80.735839 
    4000    301.19523   -10502.914            0   -9606.0059    933.03359    781.43746    9.2108153    9.2108153    9.2108153     71.89233 
Loop time of 13.3785 on 16 procs for 1000 steps with 1000 atoms

Performance: 6.458 ns/day, 3.716 hours/ns, 74.747 timesteps/s
94.8% CPU use with 16 MPI tasks x no OpenMP threads

MPI task timing breakdown:
Section |  min time  |  avg time  |  max time  |%varavg| %total
---------------------------------------------------------------
Pair    | 1.67       | 1.732      | 1.8513     |   4.2 | 12.95
Neigh   | 0.5846     | 0.61027    | 0.67025    |   3.0 |  4.56
Comm    | 0.40993    | 0.58916    | 0.67436    |  10.0 |  4.40
Output  | 6.8547     | 7.0808     | 10.419     |  32.4 | 52.93
Modify  | 0.020852   | 3.3593     | 3.5855     |  47.0 | 25.11
Other   |            | 0.006922   |            |       |  0.05

Nlocal:    62.5 ave 67 max 57 min
Histogram: 1 0 1 2 0 4 2 2 3 1
Nghost:    1867.31 ave 1883 max 1849 min
Histogram: 2 0 1 1 2 2 4 2 1 1
Neighs:    0 ave 0 max 0 min
Histogram: 16 0 0 0 0 0 0 0 0 0
FullNghs:  18912.4 ave 20128 max 17175 min
Histogram: 1 0 1 2 1 3 2 2 1 3

Total # of neighbors = 302598
Ave neighs/atom = 302.598
Neighbor list builds = 1000
Dangerous builds not checked
Setting up Verlet run ...
  Unit style    : real
  Current step  : 4000
  Time step     : 1
Per MPI rank memory allocation (min/avg/max) = 3.77 | 4.528 | 4.58 Mbytes
Step Temp E_pair E_mol TotEng Press Volume Lx Ly Lz S/CPU 
    4000    301.19523   -10502.914            0   -9606.0059    933.03359    781.43746    9.2108153    9.2108153    9.2108153            0 
    4100     299.1258   -10488.469            0   -9597.7231    16239.805     780.3525    9.2065506    9.2065506    9.2065506    67.034776 
    4200    297.16505   -10474.801            0   -9589.8944      18928.6    780.15822    9.2057864    9.2057864    9.2057864    72.842265 
    4300    306.11568   -10492.864            0    -9581.304   -143.06371    781.02482    9.2091938    9.2091938    9.2091938    73.324125 
    4400    295.65491   -10453.324            0    -9572.914    4508.7251    782.47908    9.2149061    9.2149061    9.2149061    74.223061 
    4500    295.33307   -10446.098            0    -9566.647    2182.0395     784.0296    9.2209886    9.2209886    9.2209886    86.383026 
    4600    303.63647   -10465.824            0   -9561.6465    3099.0826    785.74906    9.2277246    9.2277246    9.2277246    73.870683 
    4700    311.25696   -10484.982            0   -9558.1121    11517.676    788.20599    9.2373325    9.2373325    9.2373325    59.376686 
    4800    290.63595   -10420.672            0    -9555.208   -7351.3583    791.27348    9.2493001    9.2493001    9.2493001     92.99979 
    4900    297.95858   -10439.355            0   -9552.0848   -8033.6166    794.12258    9.2603879    9.2603879    9.2603879     96.85679 
    5000    301.83329   -10448.663            0   -9549.8551   -28482.769    796.15278    9.2682727    9.2682727    9.2682727    82.245801 
Loop time of 13.0948 on 16 procs for 1000 steps with 1000 atoms

Performance: 6.598 ns/day, 3.637 hours/ns, 76.366 timesteps/s
94.9% CPU use with 16 MPI tasks x no OpenMP threads

MPI task timing breakdown:
Section |  min time  |  avg time  |  max time  |%varavg| %total
---------------------------------------------------------------
Pair    | 1.6094     | 1.7327     | 1.8648     |   4.2 | 13.23
Neigh   | 0.57338    | 0.61006    | 0.66449    |   2.7 |  4.66
Comm    | 0.417      | 0.6032     | 0.76295    |   9.6 |  4.61
Output  | 6.6528     | 6.8727     | 10.12      |  32.0 | 52.48
Modify  | 0.020879   | 3.2692     | 3.4892     |  46.4 | 24.97
Other   |            | 0.006849   |            |       |  0.05

Nlocal:    62.5 ave 66 max 56 min
Histogram: 1 0 0 2 2 1 1 0 4 5
Nghost:    1836.31 ave 1857 max 1817 min
Histogram: 1 1 1 1 4 2 3 2 0 1
Neighs:    0 ave 0 max 0 min
Histogram: 16 0 0 0 0 0 0 0 0 0
FullNghs:  18518.5 ave 19679 max 16530 min
Histogram: 1 0 0 4 1 0 1 2 5 2

Total # of neighbors = 296296
Ave neighs/atom = 296.296
Neighbor list builds = 1000
Dangerous builds not checked
Setting up Verlet run ...
  Unit style    : real
  Current step  : 5000
  Time step     : 1
Per MPI rank memory allocation (min/avg/max) = 3.77 | 4.528 | 4.58 Mbytes
Step Temp E_pair E_mol TotEng Press Volume Lx Ly Lz S/CPU 
    5000    301.83329   -10448.663            0   -9549.8551   -28482.769    796.15278    9.2682727    9.2682727    9.2682727            0 
    5100    301.06962   -10444.839            0   -9548.3053   -4742.4438    796.78543     9.270727     9.270727     9.270727    65.499819 
    5200    300.19298   -10442.507            0   -9548.5833    -19952.49    796.41194    9.2692783    9.2692783    9.2692783    88.219899 
    5300     310.6604   -10473.539            0   -9548.4458    -14516.94    795.07089    9.2640726    9.2640726    9.2640726    87.617057 
    5400    304.64882   -10455.075            0   -9547.8833   -6523.5925    792.82968    9.2553596    9.2553596    9.2553596    67.812769 
    5500    312.84785   -10482.859            0   -9551.2513    11761.663    790.16207    9.2449676    9.2449676    9.2449676    83.016304 
    5600    298.68603   -10445.852            0   -9556.4157   -8176.3943    787.64007    9.2351212    9.2351212    9.2351212    80.307626 
    5700    312.82844    -10498.43            0   -9566.8799     17522.52     785.2372    9.2257204    9.2257204    9.2257204    78.369144 
    5800    304.30906    -10485.98            0   -9579.7992    5059.3647    783.14196    9.2175075    9.2175075    9.2175075    65.396745 
    5900    289.33939   -10457.393            0   -9595.7895    5395.2126    781.56599    9.2113203    9.2113203    9.2113203    63.966494 
    6000    294.32812    -10485.81            0   -9609.3514    1153.0969    780.27918    9.2062622    9.2062622    9.2062622    80.083201 
Loop time of 13.3432 on 16 procs for 1000 steps with 1000 atoms

Performance: 6.475 ns/day, 3.706 hours/ns, 74.944 timesteps/s
94.9% CPU use with 16 MPI tasks x no OpenMP threads

MPI task timing breakdown:
Section |  min time  |  avg time  |  max time  |%varavg| %total
---------------------------------------------------------------
Pair    | 1.6224     | 1.722      | 1.9726     |   6.0 | 12.91
Neigh   | 0.58445    | 0.61124    | 0.69118    |   3.1 |  4.58
Comm    | 0.41176    | 0.74181    | 0.86791    |  11.5 |  5.56
Output  | 6.459      | 6.6984     | 10.239     |  35.3 | 50.20
Modify  | 0.021412   | 3.5629     | 3.8026     |  48.4 | 26.70
Other   |            | 0.006886   |            |       |  0.05

Nlocal:    62.5 ave 67 max 58 min
Histogram: 2 1 2 1 2 2 1 1 3 1
Nghost:    1876.19 ave 1894 max 1859 min
Histogram: 3 0 1 2 0 3 4 1 1 1
Neighs:    0 ave 0 max 0 min
Histogram: 16 0 0 0 0 0 0 0 0 0
FullNghs:  18926.1 ave 20336 max 17520 min
Histogram: 2 1 2 1 2 2 2 0 2 2

Total # of neighbors = 302818
Ave neighs/atom = 302.818
Neighbor list builds = 1000
Dangerous builds not checked
Setting up Verlet run ...
  Unit style    : real
  Current step  : 6000
  Time step     : 1
Per MPI rank memory allocation (min/avg/max) = 3.77 | 4.528 | 4.58 Mbytes
Step Temp E_pair E_mol TotEng Press Volume Lx Ly Lz S/CPU 
    6000    294.32812    -10485.81            0   -9609.3514    1153.0969    780.27918    9.2062622    9.2062622    9.2062622            0 
    6100     309.9181     -10543.8            0   -9620.9169    7508.6114    779.08564    9.2015657    9.2015657    9.2015657    90.298277 
    6200    290.33643   -10491.241            0   -9626.6691    16146.951     778.4078    9.1988964    9.1988964    9.1988964    69.953406 
    6300    300.22061   -10528.117            0   -9634.1113    11970.559    778.64805    9.1998427    9.1998427    9.1998427     71.55412 
    6400    283.48062   -10481.673            0   -9637.5157    432.90036    779.37562    9.2027072    9.2027072    9.2027072    80.923727 
    6500    291.95995   -10508.651            0   -9639.2445   -6036.7275    780.17431    9.2058498    9.2058498    9.2058498    83.948852 
    6600    295.79994   -10521.077            0   -9640.2351   -3556.4338    781.18466     9.209822     9.209822     9.209822    81.200892 
    6700    279.86834   -10471.529            0   -9638.1287    146.22207    782.28987    9.2141632    9.2141632    9.2141632    77.613166 
    6800     299.2713   -10527.605            0   -9636.4266   -9369.4688    783.35654    9.2183492    9.2183492    9.2183492    96.891466 
    6900    276.44908   -10454.219            0   -9631.0009    573.69684     784.1003    9.2212658    9.2212658    9.2212658    81.403435 
    7000    298.62121   -10514.039            0   -9624.7955   -12352.459    784.61832     9.223296     9.223296     9.223296    60.037349 
Loop time of 12.8076 on 16 procs for 1000 steps with 1000 atoms

Performance: 6.746 ns/day, 3.558 hours/ns, 78.079 timesteps/s
94.8% CPU use with 16 MPI tasks x no OpenMP threads

MPI task timing breakdown:
Section |  min time  |  avg time  |  max time  |%varavg| %total
---------------------------------------------------------------
Pair    | 1.6596     | 1.7476     | 1.8771     |   4.5 | 13.65
Neigh   | 0.58706    | 0.61039    | 0.63903    |   1.8 |  4.77
Comm    | 0.34406    | 0.49212    | 0.60319    |   9.7 |  3.84
Output  | 6.5029     | 6.7202     | 9.9297     |  32.0 | 52.47
Modify  | 0.020557   | 3.2304     | 3.4478     |  46.1 | 25.22
Other   |            | 0.006882   |            |       |  0.05

Nlocal:    62.5 ave 67 max 57 min
Histogram: 1 0 1 2 2 3 0 2 3 2
Nghost:    1853.19 ave 1874 max 1829 min
Histogram: 1 0 1 2 4 1 2 3 1 1
Neighs:    0 ave 0 max 0 min
Histogram: 16 0 0 0 0 0 0 0 0 0
FullNghs:  18814.2 ave 20267 max 17155 min
Histogram: 1 0 3 2 1 2 0 5 1 1

Total # of neighbors = 301028
Ave neighs/atom = 301.028
Neighbor list builds = 1000
Dangerous builds not checked
Setting up Verlet run ...
  Unit style    : real
  Current step  : 7000
  Time step     : 1
Per MPI rank memory allocation (min/avg/max) = 4.578 | 4.579 | 4.58 Mbytes
Step Temp E_pair E_mol TotEng Press Volume Lx Ly Lz S/CPU 
    7000    298.62121   -10514.039            0   -9624.7955   -12352.459    784.61832     9.223296     9.223296     9.223296            0 
    7100    304.24849   -10521.831            0   -9615.8308   -5659.1139    784.95843    9.2246285    9.2246285    9.2246285    74.542025 
    7200    299.04571   -10493.726            0    -9603.219    22928.833    785.02252    9.2248796    9.2248796    9.2248796    86.788782 
    7300    298.35567   -10480.731            0   -9592.2791    10254.255    785.30616    9.2259905    9.2259905    9.2259905    85.922322 
    7400    289.06071   -10442.938            0   -9582.1649   -524.33546    785.83733    9.2280701    9.2280701    9.2280701     59.79752 
    7500    297.28321   -10460.063            0   -9574.8041   -2445.3584    786.22905    9.2296032    9.2296032    9.2296032    88.848492 
    7600     306.9574   -10483.116            0   -9569.0494   -3013.7423    786.11801    9.2291686    9.2291686    9.2291686    81.587064 
    7700    305.37378   -10475.009            0   -9565.6579   -2584.5816    785.56397    9.2269999    9.2269999    9.2269999    105.49897 
    7800    297.88074   -10449.217            0   -9562.1792   -3138.7516    784.64888    9.2234158    9.2234158    9.2234158    52.635204 
    7900     298.4294   -10449.728            0   -9561.0561    10730.955    783.62145    9.2193883    9.2193883    9.2193883    81.847371 
    8000    307.26127   -10475.304            0   -9560.3324   -2005.5075    782.88596     9.216503     9.216503     9.216503    98.647517 
Loop time of 12.7644 on 16 procs for 1000 steps with 1000 atoms

Performance: 6.769 ns/day, 3.546 hours/ns, 78.343 timesteps/s
94.7% CPU use with 16 MPI tasks x no OpenMP threads

MPI task timing breakdown:
Section |  min time  |  avg time  |  max time  |%varavg| %total
---------------------------------------------------------------
Pair    | 1.6528     | 1.7248     | 1.7929     |   2.5 | 13.51
Neigh   | 0.58925    | 0.60706    | 0.63974    |   1.7 |  4.76
Comm    | 0.3795     | 0.45337    | 0.52321    |   6.0 |  3.55
Output  | 6.5593     | 6.7742     | 9.952      |  31.5 | 53.07
Modify  | 0.020188   | 3.1981     | 3.4131     |  45.9 | 25.06
Other   |            | 0.006819   |            |       |  0.05

Nlocal:    62.5 ave 72 max 55 min
Histogram: 1 1 2 2 6 1 0 2 0 1
Nghost:    1854.25 ave 1889 max 1830 min
Histogram: 3 1 1 4 1 4 0 0 0 2
Neighs:    0 ave 0 max 0 min
Histogram: 16 0 0 0 0 0 0 0 0 0
FullNghs:  18853.5 ave 21866 max 16377 min
Histogram: 1 1 1 3 5 2 1 1 0 1

Total # of neighbors = 301656
Ave neighs/atom = 301.656
Neighbor list builds = 1000
Dangerous builds not checked
Setting up Verlet run ...
  Unit style    : real
  Current step  : 8000
  Time step     : 1
Per MPI rank memory allocation (min/avg/max) = 4.578 | 4.579 | 4.58 Mbytes
Step Temp E_pair E_mol TotEng Press Volume Lx Ly Lz S/CPU 
    8000    307.26127   -10475.304            0   -9560.3324   -2005.5075    782.88596     9.216503     9.216503     9.216503            0 
    8100    298.89649   -10449.737            0   -9559.6748    4795.0511    782.28275    9.2141353    9.2141353    9.2141353    85.761552 
    8200    305.84506   -10470.869            0   -9560.1149    2181.3606    781.97452     9.212925     9.212925     9.212925    58.154905 
    8300    290.39458   -10426.021            0   -9561.2759    3173.5666    781.75472    9.2120617    9.2120617    9.2120617    78.331031 
    8400     297.7618   -10448.837            0   -9562.1529   -8947.7348    781.69214    9.2118159    9.2118159    9.2118159    77.411391 
    8500    299.42755   -10454.123            0   -9562.4792   -5152.7202    781.79775    9.2122307    9.2122307    9.2122307    66.543358 
    8600    291.81275   -10430.464            0    -9561.495    2341.0328      781.891    9.2125969    9.2125969    9.2125969    83.329492 
    8700    306.97796   -10476.593            0   -9562.4646   -467.00965    782.21526    9.2138703    9.2138703    9.2138703    81.709821 
    8800    297.13711   -10448.938            0   -9564.1141   -4828.1229    782.59601     9.215365     9.215365     9.215365    100.57068 
    8900    300.95001   -10462.976            0    -9566.798    5438.4897    783.17072    9.2176203    9.2176203    9.2176203    64.218844 
    9000    289.89906   -10432.916            0   -9569.6459    344.33115    784.12492    9.2213623    9.2213623    9.2213623    71.885803 
Loop time of 13.3233 on 16 procs for 1000 steps with 1000 atoms

Performance: 6.485 ns/day, 3.701 hours/ns, 75.056 timesteps/s
94.8% CPU use with 16 MPI tasks x no OpenMP threads

MPI task timing breakdown:
Section |  min time  |  avg time  |  max time  |%varavg| %total
---------------------------------------------------------------
Pair    | 1.6638     | 1.7491     | 1.8579     |   4.5 | 13.13
Neigh   | 0.58579    | 0.6106     | 0.65432    |   2.6 |  4.58
Comm    | 0.42079    | 0.56589    | 0.67557    |   9.9 |  4.25
Output  | 6.6106     | 6.8487     | 10.37      |  34.7 | 51.40
Modify  | 0.020706   | 3.5421     | 3.7804     |  48.3 | 26.59
Other   |            | 0.006924   |            |       |  0.05

Nlocal:    62.5 ave 68 max 57 min
Histogram: 2 2 0 1 3 2 2 2 0 2
Nghost:    1871.5 ave 1889 max 1854 min
Histogram: 2 1 1 2 3 1 2 0 2 2
Neighs:    0 ave 0 max 0 min
Histogram: 16 0 0 0 0 0 0 0 0 0
FullNghs:  18826.5 ave 20653 max 17231 min
Histogram: 2 2 0 2 3 1 2 2 0 2

Total # of neighbors = 301224
Ave neighs/atom = 301.224
Neighbor list builds = 1000
Dangerous builds not checked
Setting up Verlet run ...
  Unit style    : real
  Current step  : 9000
  Time step     : 1
Per MPI rank memory allocation (min/avg/max) = 4.578 | 4.579 | 4.58 Mbytes
Step Temp E_pair E_mol TotEng Press Volume Lx Ly Lz S/CPU 
    9000    289.89906   -10432.916            0   -9569.6459    344.33115    784.12492    9.2213623    9.2213623    9.2213623            0 
    9100    299.13545   -10463.311            0   -9572.5364   -14311.866    784.89864    9.2243943    9.2243943    9.2243943    75.901379 
    9200    294.89447   -10457.594            0   -9579.4488   -2082.1018    784.99677    9.2247787    9.2247787    9.2247787    65.936189 
    9300    300.61498   -10483.157            0   -9587.9772   -10314.311     784.4371    9.2225859    9.2225859    9.2225859    70.616801 
    9400      298.433   -10488.017            0   -9599.3341   -10238.931    783.39986    9.2185192    9.2185192    9.2185192     92.00191 
    9500    301.47712   -10509.981            0   -9612.2332     -252.467    781.64248    9.2116208    9.2116208    9.2116208    80.348991 
    9600    286.66032   -10476.776            0   -9623.1509    15489.918    779.64805    9.2037793    9.2037793    9.2037793    77.589187 
    9700    297.89453   -10520.147            0   -9633.0679     10511.22    778.06948    9.1975635    9.1975635    9.1975635    72.962739 
    9800    283.66631   -10485.022            0   -9640.3123    23692.739    777.05199    9.1935525    9.1935525    9.1935525    75.992569 
    9900    296.34729   -10529.461            0   -9646.9889    7167.2005      776.948    9.1931423    9.1931423    9.1931423    75.795934 
   10000    290.62383   -10517.158            0   -9651.7297   -9374.7477    777.46806    9.1951931    9.1951931    9.1951931      65.5608 
Loop time of 13.4017 on 16 procs for 1000 steps with 1000 atoms

Performance: 6.447 ns/day, 3.723 hours/ns, 74.617 timesteps/s
94.8% CPU use with 16 MPI tasks x no OpenMP threads

MPI task timing breakdown:
Section |  min time  |  avg time  |  max time  |%varavg| %total
---------------------------------------------------------------
Pair    | 1.669      | 1.7507     | 1.828      |   3.6 | 13.06
Neigh   | 0.58546    | 0.61011    | 0.65521    |   2.6 |  4.55
Comm    | 0.38515    | 0.50748    | 0.61344    |   9.0 |  3.79
Output  | 6.8824     | 7.1117     | 10.505     |  32.9 | 53.07
Modify  | 0.020708   | 3.4149     | 3.6444     |  47.4 | 25.48
Other   |            | 0.00687    |            |       |  0.05

Nlocal:    62.5 ave 68 max 57 min
Histogram: 1 1 2 2 3 0 4 1 0 2
Nghost:    1865.38 ave 1877 max 1855 min
Histogram: 5 0 0 2 0 4 0 1 3 1
Neighs:    0 ave 0 max 0 min
Histogram: 16 0 0 0 0 0 0 0 0 0
FullNghs:  18976.2 ave 20575 max 17418 min
Histogram: 2 0 2 2 3 0 4 1 0 2

Total # of neighbors = 303620
Ave neighs/atom = 303.62
Neighbor list builds = 1000
Dangerous builds not checked
Setting up Verlet run ...
  Unit style    : real
  Current step  : 10000
  Time step     : 1
Per MPI rank memory allocation (min/avg/max) = 4.578 | 4.579 | 4.58 Mbytes
Step Temp E_pair E_mol TotEng Press Volume Lx Ly Lz S/CPU 
   10000    290.62383   -10517.158            0   -9651.7297   -9374.7477    777.46806    9.1951931    9.1951931    9.1951931            0 
   10100      292.238   -10523.601            0   -9653.3663    10301.163    778.21863    9.1981511    9.1981511    9.1981511    86.654152 
   10200    290.65737    -10519.18            0   -9653.6522    6809.4067    779.29836    9.2024031    9.2024031    9.2024031    72.440715 
   10300    295.71744   -10532.117            0    -9651.521   -1555.7422    780.78326    9.2082443    9.2082443    9.2082443    70.633564 
   10400    287.12612   -10502.099            0   -9647.0867    4398.0479     782.4296    9.2147118    9.2147118    9.2147118    69.857844 
   10500    295.54064   -10521.292            0   -9641.2226    8618.4377    784.59518    9.2232054    9.2232054    9.2232054    83.402806 
   10600    292.38463   -10503.252            0   -9632.5801   -5303.0845    787.34396    9.2339638    9.2339638    9.2339638    80.374709 
   10700    291.02822   -10487.345            0   -9620.7131   -22562.212    789.47613    9.2422916    9.2422916    9.2422916    84.392577 
   10800    289.93075   -10471.428            0   -9608.0642   -13163.302    790.62095    9.2467569    9.2467569    9.2467569    63.543601 
   10900    294.81014   -10474.226            0   -9596.3318   -14447.955    790.65105    9.2468742    9.2468742    9.2468742    77.718668 
   11000    296.23571   -10469.026            0   -9586.8863   -948.13157    789.74427    9.2433379    9.2433379    9.2433379    101.25091 
Loop time of 12.8579 on 16 procs for 1000 steps with 1000 atoms

Performance: 6.720 ns/day, 3.572 hours/ns, 77.773 timesteps/s
94.8% CPU use with 16 MPI tasks x no OpenMP threads

MPI task timing breakdown:
Section |  min time  |  avg time  |  max time  |%varavg| %total
---------------------------------------------------------------
Pair    | 1.6822     | 1.726      | 1.8041     |   2.3 | 13.42
Neigh   | 0.59122    | 0.60813    | 0.64757    |   2.0 |  4.73
Comm    | 0.33775    | 0.45487    | 0.51269    |   6.4 |  3.54
Output  | 6.9363     | 7.1332     | 10.041     |  28.1 | 55.48
Modify  | 0.020337   | 2.9288     | 3.1257     |  43.9 | 22.78
Other   |            | 0.006847   |            |       |  0.05

Nlocal:    62.5 ave 66 max 56 min
Histogram: 1 0 0 0 2 1 3 3 4 2
Nghost:    1863.75 ave 1878 max 1843 min
Histogram: 1 1 0 2 2 2 2 1 3 2
Neighs:    0 ave 0 max 0 min
Histogram: 16 0 0 0 0 0 0 0 0 0
FullNghs:  18683 ave 19883 max 16675 min
Histogram: 1 0 0 1 2 3 2 5 0 2

Total # of neighbors = 298928
Ave neighs/atom = 298.928
Neighbor list builds = 1000
Dangerous builds not checked
Setting up Verlet run ...
  Unit style    : real
  Current step  : 11000
  Time step     : 1
Per MPI rank memory allocation (min/avg/max) = 4.578 | 4.579 | 4.58 Mbytes
Step Temp E_pair E_mol TotEng Press Volume Lx Ly Lz S/CPU 
   11000    296.23571   -10469.026            0   -9586.8863   -948.13157    789.74427    9.2433379    9.2433379    9.2433379            0 
   11100    298.81042   -10470.435            0   -9580.6284   -5409.2401     788.1069    9.2369454    9.2369454    9.2369454    58.936195 
   11200    309.11982   -10497.153            0    -9576.647   -3374.1999    786.06523    9.2289621    9.2289621    9.2289621    66.333921 
   11300    312.11205   -10505.141            0   -9575.7243    3415.5872    784.41415    9.2224959    9.2224959    9.2224959    91.766304 
   11400    300.06618   -10469.363            0   -9575.8172    9447.7865    783.46902    9.2187904    9.2187904    9.2187904    104.04929 
   11500    305.59994   -10486.645            0   -9576.6203    4247.5715    783.26253    9.2179805    9.2179805    9.2179805    73.175678 
   11600    301.02424   -10472.859            0   -9576.4603   -7206.0461    783.47359    9.2188084    9.2188084    9.2188084    70.060842 
   11700    302.32659    -10478.23            0   -9577.9532   -4166.5944     783.5344    9.2190469    9.2190469    9.2190469    78.559063 
   11800    298.29001   -10468.646            0   -9580.3895    6293.1955    783.22781    9.2178443    9.2178443    9.2178443    104.31938 
   11900      298.845   -10472.057            0   -9582.1479   -654.63212    782.68067    9.2156973    9.2156973    9.2156973    71.667275 
   12000    305.24042   -10493.669            0   -9584.7155    9855.8201    781.88581    9.2125766    9.2125766    9.2125766    63.027683 
Loop time of 13.2625 on 16 procs for 1000 steps with 1000 atoms

Performance: 6.515 ns/day, 3.684 hours/ns, 75.401 timesteps/s
94.8% CPU use with 16 MPI tasks x no OpenMP threads

MPI task timing breakdown:
Section |  min time  |  avg time  |  max time  |%varavg| %total
---------------------------------------------------------------
Pair    | 1.6595     | 1.737      | 1.8724     |   3.7 | 13.10
Neigh   | 0.59529    | 0.61047    | 0.66768    |   2.2 |  4.60
Comm    | 0.38432    | 0.57692    | 0.65353    |   8.1 |  4.35
Output  | 6.7459     | 6.972      | 10.31      |  32.6 | 52.57
Modify  | 0.020898   | 3.3593     | 3.5854     |  47.0 | 25.33
Other   |            | 0.006886   |            |       |  0.05

Nlocal:    62.5 ave 68 max 57 min
Histogram: 1 2 0 2 5 1 0 2 2 1
Nghost:    1860.81 ave 1876 max 1841 min
Histogram: 1 1 1 1 1 2 4 1 2 2
Neighs:    0 ave 0 max 0 min
Histogram: 16 0 0 0 0 0 0 0 0 0
FullNghs:  18883.5 ave 20440 max 16997 min
Histogram: 1 0 2 1 2 4 1 2 1 2

Total # of neighbors = 302136
Ave neighs/atom = 302.136
Neighbor list builds = 1000
Dangerous builds not checked
Setting up Verlet run ...
  Unit style    : real
  Current step  : 12000
  Time step     : 1
Per MPI rank memory allocation (min/avg/max) = 4.578 | 4.579 | 4.58 Mbytes
Step Temp E_pair E_mol TotEng Press Volume Lx Ly Lz S/CPU 
   12000    305.24042   -10493.669            0   -9584.7155    9855.8201    781.88581    9.2125766    9.2125766    9.2125766            0 
   12100    302.10672   -10487.502            0   -9587.8799     7390.365    781.63015    9.2115724    9.2115724    9.2115724    77.622155 
   12200    294.70197   -10469.139            0   -9591.5667   -1146.6555    781.81231    9.2122879    9.2122879    9.2122879    83.619925 
   12300    297.73434   -10483.065            0   -9596.4629    3024.7089    782.15467    9.2136324    9.2136324    9.2136324    55.877689 
   12400    303.93892   -10507.838            0   -9602.7602    -492.5489    782.60584    9.2154036    9.2154036    9.2154036    71.951552 
   12500    296.65629   -10493.801            0   -9610.4091   -2990.3165    782.84557    9.2163445    9.2163445    9.2163445    98.551861 
   12600    299.80235   -10512.534            0   -9619.7741    4097.0705    782.86759    9.2164309    9.2164309    9.2164309    67.640834 
   12700     298.3786   -10518.244            0   -9629.7235    -6433.761    782.77157    9.2160541    9.2160541    9.2160541    66.861001 
   12800    293.92278   -10517.262            0   -9642.0102    6133.1332    782.37371    9.2144924    9.2144924    9.2144924    90.164148 
   12900    293.70627    -10527.46            0   -9652.8525    2756.6171    782.39743    9.2145855    9.2145855    9.2145855    79.155807 
   13000    301.21609   -10560.386            0   -9663.4157   -9783.6892    782.28135    9.2141298    9.2141298    9.2141298    66.414462 
Loop time of 13.5305 on 16 procs for 1000 steps with 1000 atoms

Performance: 6.386 ns/day, 3.758 hours/ns, 73.907 timesteps/s
94.8% CPU use with 16 MPI tasks x no OpenMP threads

MPI task timing breakdown:
Section |  min time  |  avg time  |  max time  |%varavg| %total
---------------------------------------------------------------
Pair    | 1.6735     | 1.7451     | 1.8271     |   3.2 | 12.90
Neigh   | 0.592      | 0.6121     | 0.65709    |   2.0 |  4.52
Comm    | 0.44189    | 0.56867    | 0.65955    |   7.1 |  4.20
Output  | 6.8221     | 7.0601     | 10.576     |  34.2 | 52.18
Modify  | 0.02073    | 3.5376     | 3.7757     |  48.3 | 26.15
Other   |            | 0.006886   |            |       |  0.05

Nlocal:    62.5 ave 69 max 59 min
Histogram: 3 3 2 1 1 2 1 1 0 2
Nghost:    1853.06 ave 1880 max 1837 min
Histogram: 5 0 2 2 0 5 0 0 0 2
Neighs:    0 ave 0 max 0 min
Histogram: 16 0 0 0 0 0 0 0 0 0
FullNghs:  18861 ave 21017 max 17766 min
Histogram: 4 4 0 2 2 1 1 0 1 1

Total # of neighbors = 301776
Ave neighs/atom = 301.776
Neighbor list builds = 1000
Dangerous builds not checked
Setting up Verlet run ...
  Unit style    : real
  Current step  : 13000
  Time step     : 1
Per MPI rank memory allocation (min/avg/max) = 4.578 | 4.579 | 4.58 Mbytes
Step Temp E_pair E_mol TotEng Press Volume Lx Ly Lz S/CPU 
   13000    301.21609   -10560.386            0   -9663.4157   -9783.6892    782.28135    9.2141298    9.2141298    9.2141298            0 
   13100    290.05947   -10534.254            0   -9670.5059    7577.1996    781.56991    9.2113357    9.2113357    9.2113357    74.373911 
   13200    286.84929   -10529.572            0   -9675.3838    -5162.438    780.83877    9.2084625    9.2084625    9.2084625    70.424861 
   13300    289.30613   -10539.228            0   -9677.7238   -11282.776    779.72106    9.2040667    9.2040667    9.2040667    72.792788 
   13400    296.88071   -10561.506            0   -9677.4463    23589.619    778.32936    9.1985874    9.1985874    9.1985874    75.403745 
   13500     292.6031   -10546.636            0   -9675.3136    10275.569     777.4654    9.1951826    9.1951826    9.1951826    78.316119 
   13600    284.00692   -10517.389            0   -9671.6649    3901.8074    776.98482    9.1932875    9.1932875    9.1932875    97.165074 
   13700    290.47007    -10534.62            0   -9669.6497    27760.076    776.84718    9.1927447    9.1927447    9.1927447    90.848991 
   13800    288.11052   -10522.912            0   -9664.9683    15024.545    777.85602    9.1967223    9.1967223    9.1967223     58.08592 
   13900    293.10001   -10535.385            0   -9662.5828    3390.6568    779.90848     9.204804     9.204804     9.204804    85.232573 
   14000    299.15619   -10549.317            0   -9658.4814     2574.096    782.75485    9.2159884    9.2159884    9.2159884    96.773672 
Loop time of 12.7995 on 16 procs for 1000 steps with 1000 atoms

Performance: 6.750 ns/day, 3.555 hours/ns, 78.128 timesteps/s
94.8% CPU use with 16 MPI tasks x no OpenMP threads

MPI task timing breakdown:
Section |  min time  |  avg time  |  max time  |%varavg| %total
---------------------------------------------------------------
Pair    | 1.6408     | 1.7519     | 1.8331     |   3.8 | 13.69
Neigh   | 0.57416    | 0.6107     | 0.63251    |   2.2 |  4.77
Comm    | 0.42111    | 0.51796    | 0.6655     |   8.8 |  4.05
Output  | 6.6027     | 6.8115     | 9.891      |  30.5 | 53.22
Modify  | 0.020498   | 3.1005     | 3.3095     |  45.2 | 24.22
Other   |            | 0.006935   |            |       |  0.05

Nlocal:    62.5 ave 67 max 58 min
Histogram: 1 0 2 3 4 0 1 4 0 1
Nghost:    1849.56 ave 1872 max 1834 min
Histogram: 2 1 3 1 4 1 3 0 0 1
Neighs:    0 ave 0 max 0 min
Histogram: 16 0 0 0 0 0 0 0 0 0
FullNghs:  18864.4 ave 20363 max 17448 min
Histogram: 1 1 2 3 3 0 1 4 0 1

Total # of neighbors = 301830
Ave neighs/atom = 301.83
Neighbor list builds = 1000
Dangerous builds not checked
Setting up Verlet run ...
  Unit style    : real
  Current step  : 14000
  Time step     : 1
Per MPI rank memory allocation (min/avg/max) = 4.578 | 4.579 | 4.58 Mbytes
Step Temp E_pair E_mol TotEng Press Volume Lx Ly Lz S/CPU 
   14000    299.15619   -10549.317            0   -9658.4814     2574.096    782.75485    9.2159884    9.2159884    9.2159884            0 
   14100    286.78595   -10506.903            0   -9652.9035   -11862.543    786.45895    9.2305027    9.2305027    9.2305027    92.027945 
   14200    291.04794   -10515.838            0   -9649.1467   -14815.169    790.39737    9.2458852    9.2458852    9.2458852    60.677422 
   14300    300.30855   -10538.549            0   -9644.2817    -17991.96    793.77587    9.2590401    9.2590401    9.2590401    80.560107 
   14400    292.95711    -10510.31            0   -9637.9335   -1504.8803    796.54675    9.2698013    9.2698013    9.2698013    89.660587 
   14500    282.90957   -10474.022            0   -9631.5655   -26665.537    798.76538    9.2783997    9.2783997    9.2783997    86.320575 
   14600    294.51158   -10502.143            0   -9625.1374   -13649.621      799.766    9.2822725    9.2822725    9.2822725    58.668103 
   14700    305.11561   -10527.977            0   -9619.3944    -19205.57    799.28747    9.2804208    9.2804208    9.2804208    85.266481 
   14800    298.78193   -10501.481            0   -9611.7594   -14227.488    797.48766    9.2734498    9.2734498    9.2734498    87.560418 
   14900    301.21069   -10501.443            0   -9604.4891   -9835.9171    794.83473    9.2631553    9.2631553    9.2631553    86.053783 
   15000    300.21999   -10491.367            0   -9597.3627    5649.8949    791.59171    9.2505399    9.2505399    9.2505399    70.947024 
Loop time of 12.8407 on 16 procs for 1000 steps with 1000 atoms

Performance: 6.729 ns/day, 3.567 hours/ns, 77.877 timesteps/s
94.8% CPU use with 16 MPI tasks x no OpenMP threads

MPI task timing breakdown:
Section |  min time  |  avg time  |  max time  |%varavg| %total
---------------------------------------------------------------
Pair    | 1.5878     | 1.6879     | 1.8453     |   5.2 | 13.14
Neigh   | 0.58356    | 0.60743    | 0.66883    |   2.7 |  4.73
Comm    | 0.40095    | 0.61923    | 0.73845    |  11.0 |  4.82
Output  | 6.5861     | 6.7963     | 9.8971     |  30.7 | 52.93
Modify  | 0.021042   | 3.1231     | 3.3335     |  45.3 | 24.32
Other   |            | 0.00683    |            |       |  0.05

Nlocal:    62.5 ave 68 max 55 min
Histogram: 1 0 1 2 2 3 2 1 2 2
Nghost:    1840.06 ave 1847 max 1832 min
Histogram: 1 0 3 2 2 1 2 1 1 3
Neighs:    0 ave 0 max 0 min
Histogram: 16 0 0 0 0 0 0 0 0 0
FullNghs:  18646 ave 20378 max 16206 min
Histogram: 1 0 1 0 4 3 1 2 3 1

Total # of neighbors = 298336
Ave neighs/atom = 298.336
Neighbor list builds = 1000
Dangerous builds not checked
Setting up Verlet run ...
  Unit style    : real
  Current step  : 15000
  Time step     : 1
Per MPI rank memory allocation (min/avg/max) = 4.578 | 4.579 | 4.58 Mbytes
Step Temp E_pair E_mol TotEng Press Volume Lx Ly Lz S/CPU 
   15000    300.21999   -10491.367            0   -9597.3627    5649.8949    791.59171    9.2505399    9.2505399    9.2505399            0 
   15100    299.76398   -10482.604            0   -9589.9582    3811.5409     788.3432    9.2378685    9.2378685    9.2378685    84.187817 
   15200    314.72761   -10523.356            0   -9586.1509   -117.84489    785.58002    9.2270628    9.2270628    9.2270628    88.298724 
   15300    304.17486   -10487.438            0   -9581.6573    15361.835    783.53728    9.2190582    9.2190582    9.2190582    76.461796 
   15400    301.53482   -10477.538            0   -9579.6192    6444.8335     781.9287     9.212745     9.212745     9.212745    65.681422 
   15500    308.95933   -10500.067            0   -9580.0393    -4926.663    780.43252    9.2068652    9.2068652    9.2068652    77.309853 
   15600    303.82546   -10484.871            0   -9580.1305    -6334.979    778.77316    9.2003354    9.2003354    9.2003354    80.659166 
   15700     313.3726   -10516.169            0   -9582.9994    17689.724    777.50921    9.1953553    9.1953553    9.1953553    104.31498 
   15800    307.42255   -10501.094            0   -9585.6422    9955.4485    777.20401     9.194152     9.194152     9.194152    65.951707 
   15900    303.31112   -10492.662            0   -9589.4534   -363.03067     777.4981    9.1953115    9.1953115    9.1953115    76.358199 
   16000    299.25338   -10485.073            0    -9593.948    24682.396    778.20387     9.198093     9.198093     9.198093    84.478551 
Loop time of 12.6522 on 16 procs for 1000 steps with 1000 atoms

Performance: 6.829 ns/day, 3.515 hours/ns, 79.037 timesteps/s
94.8% CPU use with 16 MPI tasks x no OpenMP threads

MPI task timing breakdown:
Section |  min time  |  avg time  |  max time  |%varavg| %total
---------------------------------------------------------------
Pair    | 1.6457     | 1.7442     | 1.8279     |   3.5 | 13.79
Neigh   | 0.58142    | 0.60958    | 0.64554    |   2.0 |  4.82
Comm    | 0.38799    | 0.48614    | 0.61277    |   8.4 |  3.84
Output  | 6.3464     | 6.5642     | 9.7847     |  32.5 | 51.88
Modify  | 0.020203   | 3.2412     | 3.4593     |  46.2 | 25.62
Other   |            | 0.00686    |            |       |  0.05

Nlocal:    62.5 ave 69 max 56 min
Histogram: 1 1 0 3 3 3 2 2 0 1
Nghost:    1875.31 ave 1887 max 1861 min
Histogram: 2 2 0 1 0 3 1 3 2 2
Neighs:    0 ave 0 max 0 min
Histogram: 16 0 0 0 0 0 0 0 0 0
FullNghs:  18966.9 ave 20853 max 16760 min
Histogram: 1 1 0 1 2 5 3 2 0 1

Total # of neighbors = 303470
Ave neighs/atom = 303.47
Neighbor list builds = 1000
Dangerous builds not checked
Setting up Verlet run ...
  Unit style    : real
  Current step  : 16000
  Time step     : 1
Per MPI rank memory allocation (min/avg/max) = 4.578 | 4.579 | 4.58 Mbytes
Step Temp E_pair E_mol TotEng Press Volume Lx Ly Lz S/CPU 
   16000    299.25338   -10485.073            0    -9593.948    24682.396    778.20387     9.198093     9.198093     9.198093            0 
   16100    304.94145   -10508.511            0   -9600.4479    14236.357    779.94395    9.2049436    9.2049436    9.2049436    91.164524 
   16200    300.04213   -10499.154            0   -9605.6802   -4251.7109    782.44546    9.2147741    9.2147741    9.2147741    69.632044 
   16300    297.50853   -10497.108            0   -9611.1787   -8405.5392     784.9379    9.2245481    9.2245481    9.2245481    76.854779 
   16400    293.41517   -10489.959            0   -9616.2186    5560.5339    787.07046    9.2328945    9.2328945    9.2328945    86.238521 
   16500    290.47844   -10484.798            0   -9619.8024   -18457.471    789.04977    9.2406276    9.2406276    9.2406276    67.061104 
   16600    295.03359   -10500.665            0   -9622.1054   -10474.256    790.23027    9.2452336    9.2452336    9.2452336    66.242662 
   16700    281.41314   -10460.201            0   -9622.2006    3147.0722    790.48845    9.2462403    9.2462403    9.2462403    87.919096 
   16800    297.52316   -10508.431            0   -9622.4575   -15550.305    789.98185    9.2442647    9.2442647    9.2442647    78.513431 
   16900     299.8925   -10515.191            0   -9622.1627     1985.321    788.63486    9.2390076    9.2390076    9.2390076    66.288534 
   17000    302.96329   -10521.463            0   -9619.2901   -7806.7323    787.02552    9.2327187    9.2327187    9.2327187    69.124969 
Loop time of 13.3609 on 16 procs for 1000 steps with 1000 atoms

Performance: 6.467 ns/day, 3.711 hours/ns, 74.845 timesteps/s
95.1% CPU use with 16 MPI tasks x no OpenMP threads

MPI task timing breakdown:
Section |  min time  |  avg time  |  max time  |%varavg| %total
---------------------------------------------------------------
Pair    | 1.6528     | 1.7621     | 2.3515     |  12.0 | 13.19
Neigh   | 0.59208    | 0.61836    | 0.80087    |   6.1 |  4.63
Comm    | 0.29073    | 1.0611     | 1.1941     |  20.0 |  7.94
Output  | 6.6403     | 6.8461     | 9.887      |  30.0 | 51.24
Modify  | 0.022443   | 3.0663     | 3.274      |  44.9 | 22.95
Other   |            | 0.006914   |            |       |  0.05

Nlocal:    62.5 ave 69 max 59 min
Histogram: 3 0 3 3 3 1 1 0 1 1
Nghost:    1843.12 ave 1876 max 1812 min
Histogram: 2 1 2 1 2 1 2 3 1 1
Neighs:    0 ave 0 max 0 min
Histogram: 16 0 0 0 0 0 0 0 0 0
FullNghs:  18781.5 ave 20703 max 17499 min
Histogram: 3 1 2 3 3 1 0 1 0 2

Total # of neighbors = 300504
Ave neighs/atom = 300.504
Neighbor list builds = 1000
Dangerous builds not checked
Setting up Verlet run ...
  Unit style    : real
  Current step  : 17000
  Time step     : 1
Per MPI rank memory allocation (min/avg/max) = 4.578 | 4.579 | 4.58 Mbytes
Step Temp E_pair E_mol TotEng Press Volume Lx Ly Lz S/CPU 
   17000    302.96329   -10521.463            0   -9619.2901   -7806.7323    787.02552    9.2327187    9.2327187    9.2327187            0 
   17100     298.9092   -10503.936            0   -9613.8358   -17814.464    785.05988    9.2250259    9.2250259    9.2250259    79.070355 
   17200    298.46126    -10491.94            0   -9603.1736     15015.59    782.27154    9.2140913    9.2140913    9.2140913    93.572296 
   17300    312.69551   -10517.597            0   -9586.4433    9683.8313    779.51767    9.2032663    9.2032663    9.2032663    67.734724 
   17400    307.87059   -10482.046            0   -9565.2598    1555.3768    777.14631    9.1939244    9.1939244    9.1939244    86.942717 
   17500    305.85585   -10459.298            0   -9548.5115    24092.188    775.15827     9.186078     9.186078     9.186078    92.053347 
   17600    308.55636   -10455.371            0   -9536.5431    10963.625    774.12654    9.1820007    9.1820007    9.1820007    79.459309 
   17700    316.78837   -10475.206            0   -9531.8642    13108.822    773.51902    9.1795981    9.1795981    9.1795981    55.805234 
   17800    310.61628    -10455.36            0   -9530.3976    23155.963    773.73466     9.180451     9.180451     9.180451    84.703362 
   17900     315.9616   -10472.577            0   -9531.6968    20454.119    775.16693    9.1861122    9.1861122    9.1861122    82.374993 
   18000    313.95155   -10471.643            0    -9536.749    17084.004     777.7482    9.1962974    9.1962974    9.1962974    89.608106 
Loop time of 12.6073 on 16 procs for 1000 steps with 1000 atoms

Performance: 6.853 ns/day, 3.502 hours/ns, 79.319 timesteps/s
94.9% CPU use with 16 MPI tasks x no OpenMP threads

MPI task timing breakdown:
Section |  min time  |  avg time  |  max time  |%varavg| %total
---------------------------------------------------------------
Pair    | 1.7005     | 1.7701     | 1.9219     |   3.9 | 14.04
Neigh   | 0.59167    | 0.6121     | 0.64698    |   1.7 |  4.86
Comm    | 0.39719    | 0.5653     | 0.64827    |   8.0 |  4.48
Output  | 6.2059     | 6.4231     | 9.6313     |  32.7 | 50.95
Modify  | 0.020987   | 3.2296     | 3.4471     |  46.1 | 25.62
Other   |            | 0.006953   |            |       |  0.06

Nlocal:    62.5 ave 67 max 57 min
Histogram: 1 1 1 3 1 1 1 2 1 4
Nghost:    1864.75 ave 1884 max 1850 min
Histogram: 2 0 4 4 2 0 0 1 0 3
Neighs:    0 ave 0 max 0 min
Histogram: 16 0 0 0 0 0 0 0 0 0
FullNghs:  18985.8 ave 20586 max 17130 min
Histogram: 1 1 2 2 1 1 3 1 2 2

Total # of neighbors = 303772
Ave neighs/atom = 303.772
Neighbor list builds = 1000
Dangerous builds not checked
Setting up Verlet run ...
  Unit style    : real
  Current step  : 18000
  Time step     : 1
Per MPI rank memory allocation (min/avg/max) = 4.578 | 4.579 | 4.58 Mbytes
Step Temp E_pair E_mol TotEng Press Volume Lx Ly Lz S/CPU 
   18000    313.95155   -10471.643            0    -9536.749    17084.004     777.7482    9.1962974    9.1962974    9.1962974            0 
   18100    314.85455   -10481.609            0   -9544.0262    14594.518    781.20307    9.2098943    9.2098943    9.2098943    59.942161 
   18200     286.5836    -10403.83            0   -9550.4328   -16179.535    785.14613    9.2253637    9.2253637    9.2253637    83.315486 
   18300     299.2027   -10451.224            0   -9560.2497   -3064.5119    788.47632    9.2383884    9.2383884    9.2383884    77.319764 
   18400    295.90332   -10449.345            0   -9568.1951   -4719.6989    791.18035    9.2489372    9.2489372    9.2489372    66.541196 
   18500    303.77793   -10480.678            0   -9576.0794   -18081.601    793.10958    9.2564487    9.2564487    9.2564487    69.013996 
   18600    296.29981   -10464.283            0   -9581.9529   -8698.0544    793.94148     9.259684     9.259684     9.259684    81.288403 
   18700    303.03896   -10491.839            0   -9589.4409   -23389.333    793.51001    9.2580063    9.2580063    9.2580063    75.355403 
   18800    306.94176   -10508.476            0   -9594.4555   -7408.5984    791.52441    9.2502777    9.2502777    9.2502777    55.751015 
   18900    304.79893   -10506.939            0   -9599.2996    10039.384    788.84639    9.2398336    9.2398336    9.2398336    78.375532 
   19000     298.0127   -10491.371            0   -9603.9404   -235.20316    786.20127    9.2294945    9.2294945    9.2294945    98.764178 
Loop time of 13.753 on 16 procs for 1000 steps with 1000 atoms

Performance: 6.282 ns/day, 3.820 hours/ns, 72.711 timesteps/s
94.7% CPU use with 16 MPI tasks x no OpenMP threads

MPI task timing breakdown:
Section |  min time  |  avg time  |  max time  |%varavg| %total
---------------------------------------------------------------
Pair    | 1.6439     | 1.7115     | 1.7872     |   2.6 | 12.44
Neigh   | 0.59227    | 0.60738    | 0.64188    |   1.6 |  4.42
Comm    | 0.4019     | 0.48132    | 0.55271    |   5.8 |  3.50
Output  | 7.1896     | 7.4262     | 10.925     |  33.2 | 54.00
Modify  | 0.020712   | 3.5198     | 3.7566     |  48.2 | 25.59
Other   |            | 0.006806   |            |       |  0.05

Nlocal:    62.5 ave 68 max 59 min
Histogram: 2 1 2 3 4 2 0 1 0 1
Nghost:    1852.06 ave 1876 max 1826 min
Histogram: 2 1 1 2 2 2 0 2 1 3
Neighs:    0 ave 0 max 0 min
Histogram: 16 0 0 0 0 0 0 0 0 0
FullNghs:  18776.9 ave 20442 max 17727 min
Histogram: 3 1 3 1 3 3 0 0 1 1

Total # of neighbors = 300430
Ave neighs/atom = 300.43
Neighbor list builds = 1000
Dangerous builds not checked
Setting up Verlet run ...
  Unit style    : real
  Current step  : 19000
  Time step     : 1
Per MPI rank memory allocation (min/avg/max) = 4.578 | 4.579 | 4.58 Mbytes
Step Temp E_pair E_mol TotEng Press Volume Lx Ly Lz S/CPU 
   19000     298.0127   -10491.371            0   -9603.9404   -235.20316    786.20127    9.2294945    9.2294945    9.2294945            0 
   19100    309.76033    -10532.19            0   -9609.7767    3599.0741    783.49082     9.218876     9.218876     9.218876    86.434795 
   19200    306.36401   -10525.834            0   -9613.5339     7326.127     780.9245    9.2087995    9.2087995    9.2087995    50.430362 
   19300    301.52658   -10516.803            0   -9618.9088    6792.3102    778.73817    9.2001976    9.2001976    9.2001976    80.480971 
   19400    295.26649   -10503.327            0   -9624.0735   -5285.6783    776.80814    9.1925907    9.1925907    9.1925907    84.491267 
   19500    302.16215   -10531.063            0   -9631.2758   -1959.7981    775.27926    9.1865559    9.1865559    9.1865559     79.57369 
   19600    302.26252   -10537.185            0   -9637.0991    6729.3358     774.3786    9.1829971    9.1829971    9.1829971    75.835305 
   19700    307.61447   -10562.026            0   -9646.0023    3454.2869    774.02818    9.1816117    9.1816117    9.1816117    72.495899 
   19800    291.32645   -10522.302            0   -9654.7814    23624.781    774.42069    9.1831635    9.1831635    9.1831635    84.764629 
   19900    291.34176   -10533.915            0   -9666.3494    13995.406    775.84082    9.1887734    9.1887734    9.1887734    59.256796 
   20000     296.5384    -10561.94            0   -9678.8994    6364.8282    778.04815    9.1974794    9.1974794    9.1974794    72.837681 
Loop time of 13.7609 on 16 procs for 1000 steps with 1000 atoms

Performance: 6.279 ns/day, 3.822 hours/ns, 72.669 timesteps/s
94.8% CPU use with 16 MPI tasks x no OpenMP threads

MPI task timing breakdown:
Section |  min time  |  avg time  |  max time  |%varavg| %total
---------------------------------------------------------------
Pair    | 1.724      | 1.7678     | 1.9318     |   4.0 | 12.85
Neigh   | 0.59698    | 0.61311    | 0.68123    |   2.5 |  4.46
Comm    | 0.39697    | 0.62877    | 0.68569    |   8.9 |  4.57
Output  | 7.0854     | 7.3162     | 10.722     |  32.5 | 53.17
Modify  | 0.021003   | 3.4281     | 3.6591     |  47.5 | 24.91
Other   |            | 0.006918   |            |       |  0.05

Nlocal:    62.5 ave 70 max 55 min
Histogram: 1 0 2 2 1 3 4 2 0 1
Nghost:    1862.38 ave 1896 max 1841 min
Histogram: 1 2 1 7 1 1 2 0 0 1
Neighs:    0 ave 0 max 0 min
Histogram: 16 0 0 0 0 0 0 0 0 0
FullNghs:  18936.6 ave 21119 max 16690 min
Histogram: 1 2 0 3 0 4 3 1 1 1

Total # of neighbors = 302986
Ave neighs/atom = 302.986
Neighbor list builds = 1000
Dangerous builds not checked
Setting up Verlet run ...
  Unit style    : real
  Current step  : 20000
  Time step     : 1
Per MPI rank memory allocation (min/avg/max) = 4.578 | 4.579 | 4.58 Mbytes
Step Temp E_pair E_mol TotEng Press Volume Lx Ly Lz S/CPU 
   20000     296.5384    -10561.94            0   -9678.8994    6364.8282    778.04815    9.1974794    9.1974794    9.1974794            0 
   20100    296.37825   -10572.706            0   -9690.1425    6771.0978     780.3504    9.2065423    9.2065423    9.2065423    78.582865 
   20200    286.56232   -10551.699            0   -9698.3658   -11949.686    782.59168    9.2153481    9.2153481    9.2153481    98.315936 
   20300    286.18846   -10556.794            0   -9704.5737   -15387.756    784.49623    9.2228176    9.2228176    9.2228176    60.197712 
   20400     293.8519   -10582.485            0   -9707.4445   -13534.758    785.34894     9.226158     9.226158     9.226158    76.152279 
   20500    293.32137   -10580.743            0   -9707.2816   -8780.3085     785.1184    9.2252551    9.2252551    9.2252551    93.618718 
   20600     289.3395   -10565.416            0   -9703.8123   -13001.267    784.21345    9.2217093    9.2217093    9.2217093    80.087824 
   20700    283.07614   -10540.875            0   -9697.9224   -9415.2947    782.66351      9.21563      9.21563      9.21563     80.45633 
   20800    296.06595   -10574.077            0   -9692.4432   -6131.8521    780.52522    9.2072298    9.2072298    9.2072298    86.492168 
   20900    280.99838   -10521.099            0   -9684.3333   -5453.9871    778.11393    9.1977386    9.1977386    9.1977386    111.53743 
   21000    292.51869   -10548.627            0   -9677.5561    29155.307    775.95919    9.1892407    9.1892407    9.1892407    79.439995 
Loop time of 12.1353 on 16 procs for 1000 steps with 1000 atoms

Performance: 7.120 ns/day, 3.371 hours/ns, 82.404 timesteps/s
94.9% CPU use with 16 MPI tasks x no OpenMP threads

MPI task timing breakdown:
Section |  min time  |  avg time  |  max time  |%varavg| %total
---------------------------------------------------------------
Pair    | 1.6488     | 1.7338     | 1.8097     |   3.5 | 14.29
Neigh   | 0.58557    | 0.60871    | 0.63869    |   2.0 |  5.02
Comm    | 0.37423    | 0.46112    | 0.56894    |   8.6 |  3.80
Output  | 6.1577     | 6.3573     | 9.3042     |  30.2 | 52.39
Modify  | 0.020262   | 2.9675     | 3.1674     |  44.2 | 24.45
Other   |            | 0.006847   |            |       |  0.06

Nlocal:    62.5 ave 70 max 55 min
Histogram: 1 0 3 1 3 2 3 1 0 2
Nghost:    1872.88 ave 1892 max 1860 min
Histogram: 3 2 2 0 2 4 0 2 0 1
Neighs:    0 ave 0 max 0 min
Histogram: 16 0 0 0 0 0 0 0 0 0
FullNghs:  19034.8 ave 21594 max 16570 min
Histogram: 1 0 3 1 4 1 4 0 1 1

Total # of neighbors = 304556
Ave neighs/atom = 304.556
Neighbor list builds = 1000
Dangerous builds not checked
Setting up Verlet run ...
  Unit style    : real
  Current step  : 21000
  Time step     : 1
Per MPI rank memory allocation (min/avg/max) = 4.578 | 4.579 | 4.58 Mbytes
Step Temp E_pair E_mol TotEng Press Volume Lx Ly Lz S/CPU 
   21000    292.51869   -10548.627            0   -9677.5561    29155.307    775.95919    9.1892407    9.1892407    9.1892407            0 
   21100    282.27541   -10511.977            0   -9671.4092    20402.335    775.03204    9.1855793    9.1855793    9.1855793    76.622811 
   21200    292.22429   -10537.704            0   -9667.5104    10566.675    775.23781    9.1863922    9.1863922    9.1863922    86.325503 
   21300    293.30558    -10537.85            0   -9664.4357    11929.866    776.18027    9.1901133    9.1901133    9.1901133    81.338321 
   21400    298.53102    -10549.65            0   -9660.6753    11681.043     777.8264    9.1966056    9.1966056    9.1966056    75.535175 
   21500    288.84788   -10515.067            0   -9654.9271     2182.614    779.90822     9.204803     9.204803     9.204803    79.534484 
   21600    299.95825   -10542.888            0   -9649.6637   -1237.5163    781.83111    9.2123617    9.2123617    9.2123617    106.51594 
   21700     303.3408   -10547.928            0   -9644.6309   0.19034094     783.6986    9.2196908    9.2196908    9.2196908    78.008709 
   21800    299.75874   -10529.789            0   -9637.1587   -10024.657    785.39434    9.2263358    9.2263358    9.2263358    71.839146 
   21900    296.26894   -10511.084            0   -9628.8453   -3051.9049    786.58171    9.2309829    9.2309829    9.2309829    77.947872 
   22000    287.36571   -10473.969            0   -9618.2429   -1578.5264    787.16658    9.2332703    9.2332703    9.2332703    80.969585 
Loop time of 12.4048 on 16 procs for 1000 steps with 1000 atoms

Performance: 6.965 ns/day, 3.446 hours/ns, 80.614 timesteps/s
94.8% CPU use with 16 MPI tasks x no OpenMP threads

MPI task timing breakdown:
Section |  min time  |  avg time  |  max time  |%varavg| %total
---------------------------------------------------------------
Pair    | 1.6462     | 1.7427     | 1.8179     |   3.2 | 14.05
Neigh   | 0.58882    | 0.60954    | 0.64055    |   1.8 |  4.91
Comm    | 0.38475    | 0.49071    | 0.60732    |   7.6 |  3.96
Output  | 6.1497     | 6.3645     | 9.5343     |  32.4 | 51.31
Modify  | 0.020206   | 3.1905     | 3.4055     |  45.8 | 25.72
Other   |            | 0.00687    |            |       |  0.06

Nlocal:    62.5 ave 67 max 59 min
Histogram: 1 1 3 3 0 3 4 0 0 1
Nghost:    1851.88 ave 1877 max 1824 min
Histogram: 2 0 1 4 0 2 2 1 3 1
Neighs:    0 ave 0 max 0 min
Histogram: 16 0 0 0 0 0 0 0 0 0
FullNghs:  18759.8 ave 20351 max 17646 min
Histogram: 1 3 3 1 1 3 3 0 0 1

Total # of neighbors = 300156
Ave neighs/atom = 300.156
Neighbor list builds = 1000
Dangerous builds not checked
Setting up Verlet run ...
  Unit style    : real
  Current step  : 22000
  Time step     : 1
Per MPI rank memory allocation (min/avg/max) = 4.578 | 4.579 | 4.58 Mbytes
Step Temp E_pair E_mol TotEng Press Volume Lx Ly Lz S/CPU 
   22000    287.36571   -10473.969            0   -9618.2429   -1578.5264    787.16658    9.2332703    9.2332703    9.2332703            0 
   22100    297.17935   -10493.886            0   -9608.9364   -10226.841    787.49743    9.2345637    9.2345637    9.2345637    94.484504 
   22200    311.37843   -10527.038            0   -9599.8065    317.39801    787.54871    9.2347642    9.2347642    9.2347642    74.187711 
   22300    291.38936   -10457.399            0   -9589.6912   -1075.7102    787.12848    9.2331213    9.2331213    9.2331213    72.212883 
   22400    304.49287   -10489.592            0   -9582.8646   -10496.561    786.47597    9.2305693    9.2305693    9.2305693    75.930626 
   22500    310.00141   -10501.005            0   -9577.8742    7061.9239    786.04244    9.2288729    9.2288729    9.2288729    80.659422 
   22600    310.42733    -10495.39            0   -9570.9902    8424.3983    786.29673     9.229868     9.229868     9.229868    61.210125 
   22700    305.12846   -10476.047            0   -9567.4268    6834.9699    786.95726    9.2324518    9.2324518    9.2324518    86.855536 
   22800    305.62482   -10475.882            0   -9565.7833   -5718.4031    787.66127    9.2352041    9.2352041    9.2352041    83.976935 
   22900    308.22979   -10482.955            0   -9565.0997    7608.5472    787.97674    9.2364369    9.2364369    9.2364369    86.814562 
   23000    305.57319   -10474.691            0   -9564.7466    9679.5522     788.0453    9.2367047    9.2367047    9.2367047    62.551491 
Loop time of 13.0743 on 16 procs for 1000 steps with 1000 atoms

Performance: 6.608 ns/day, 3.632 hours/ns, 76.486 timesteps/s
94.8% CPU use with 16 MPI tasks x no OpenMP threads

MPI task timing breakdown:
Section |  min time  |  avg time  |  max time  |%varavg| %total
---------------------------------------------------------------
Pair    | 1.6459     | 1.7174     | 1.7821     |   3.0 | 13.14
Neigh   | 0.59314    | 0.60787    | 0.6458     |   2.0 |  4.65
Comm    | 0.41874    | 0.51624    | 0.60175    |   7.0 |  3.95
Output  | 6.6238     | 6.8509     | 10.205     |  33.1 | 52.40
Modify  | 0.020921   | 3.375      | 3.6022     |  47.1 | 25.81
Other   |            | 0.006838   |            |       |  0.05

Nlocal:    62.5 ave 68 max 57 min
Histogram: 1 1 1 4 1 2 1 4 0 1
Nghost:    1850.19 ave 1877 max 1834 min
Histogram: 1 3 3 3 3 1 0 0 1 1
Neighs:    0 ave 0 max 0 min
Histogram: 16 0 0 0 0 0 0 0 0 0
FullNghs:  18740.1 ave 20397 max 17298 min
Histogram: 2 1 1 4 0 3 3 1 0 1

Total # of neighbors = 299842
Ave neighs/atom = 299.842
Neighbor list builds = 1000
Dangerous builds not checked
Setting up Verlet run ...
  Unit style    : real
  Current step  : 23000
  Time step     : 1
Per MPI rank memory allocation (min/avg/max) = 4.578 | 4.579 | 4.58 Mbytes
Step Temp E_pair E_mol TotEng Press Volume Lx Ly Lz S/CPU 
   23000    305.57319   -10474.691            0   -9564.7466    9679.5522     788.0453    9.2367047    9.2367047    9.2367047            0 
   23100    297.93556   -10451.722            0   -9564.5205   -7502.9507    788.23241    9.2374357    9.2374357    9.2374357    89.930743 
   23200    296.82278   -10449.636            0   -9565.7487     -13328.6    788.17388    9.2372071    9.2372071    9.2372071    95.853427 
   23300    300.04232   -10460.107            0   -9566.6325    2659.2553    787.83012    9.2358639    9.2358639    9.2358639    60.577995 
   23400    317.66659   -10514.911            0    -9568.954   -14704.627    787.72419      9.23545      9.23545      9.23545    89.334307 
   23500     307.2028   -10486.698            0   -9571.9004   -8549.9843    787.35025    9.2339884    9.2339884    9.2339884    88.554349 
   23600    300.60063   -10471.796            0   -9576.6582    -1738.611    786.63584    9.2311947    9.2311947    9.2311947    82.456527 
   23700     303.3965   -10486.761            0   -9583.2977    8743.7082    786.06098    9.2289455    9.2289455    9.2289455    58.318478 
   23800    309.93745   -10517.879            0   -9594.9384    2410.3692    785.50533    9.2267704    9.2267704    9.2267704    91.151146 
   23900    301.16567   -10504.791            0   -9607.9711    13517.727    785.11214    9.2252306    9.2252306    9.2252306    110.30543 
   24000    307.88591   -10539.668            0   -9622.8359    6489.1663    785.25181    9.2257776    9.2257776    9.2257776    74.360053 
Loop time of 12.3306 on 16 procs for 1000 steps with 1000 atoms

Performance: 7.007 ns/day, 3.425 hours/ns, 81.099 timesteps/s
94.9% CPU use with 16 MPI tasks x no OpenMP threads

MPI task timing breakdown:
Section |  min time  |  avg time  |  max time  |%varavg| %total
---------------------------------------------------------------
Pair    | 1.6747     | 1.7233     | 1.9032     |   4.2 | 13.98
Neigh   | 0.58841    | 0.60854    | 0.67513    |   2.7 |  4.94
Comm    | 0.37217    | 0.61838    | 0.68437    |   9.4 |  5.01
Output  | 6.3524     | 6.5429     | 9.3519     |  28.4 | 53.06
Modify  | 0.02086    | 2.8306     | 3.0213     |  43.1 | 22.96
Other   |            | 0.006841   |            |       |  0.06

Nlocal:    62.5 ave 67 max 57 min
Histogram: 1 1 0 3 1 1 2 3 1 3
Nghost:    1859 ave 1880 max 1839 min
Histogram: 3 1 2 0 2 1 1 3 2 1
Neighs:    0 ave 0 max 0 min
Histogram: 16 0 0 0 0 0 0 0 0 0
FullNghs:  18789.1 ave 20148 max 16863 min
Histogram: 2 0 0 3 1 0 3 3 1 3

Total # of neighbors = 300626
Ave neighs/atom = 300.626
Neighbor list builds = 1000
Dangerous builds not checked
Setting up Verlet run ...
  Unit style    : real
  Current step  : 24000
  Time step     : 1
Per MPI rank memory allocation (min/avg/max) = 4.578 | 4.579 | 4.58 Mbytes
Step Temp E_pair E_mol TotEng Press Volume Lx Ly Lz S/CPU 
   24000    307.88591   -10539.668            0   -9622.8359    6489.1663    785.25181    9.2257776    9.2257776    9.2257776            0 
   24100    304.11536   -10542.998            0   -9637.3945    8546.0892    785.68309    9.2274663    9.2274663    9.2274663    70.747216 
   24200    305.48089   -10557.338            0   -9647.6679     2902.857    786.45346    9.2304812    9.2304812    9.2304812    89.654905 
   24300      293.132   -10526.566            0   -9653.6686   -1379.8967    787.53886    9.2347256    9.2347256    9.2347256    94.316752 
   24400    287.79602   -10515.207            0   -9658.1999   -3491.5755    788.34875    9.2378902    9.2378902    9.2378902    54.965366 
   24500    294.51275    -10538.95            0   -9661.9418    1950.9593    788.90874     9.240077     9.240077     9.240077    80.562735 
   24600    296.49799   -10545.283            0   -9662.3631   -4350.5648    789.15256    9.2410288    9.2410288    9.2410288    86.333031 
   24700    282.71122   -10502.159            0   -9660.2935   -8623.0089    789.12267    9.2409121    9.2409121    9.2409121    61.825375 
   24800    293.44007   -10530.316            0   -9656.5016    5901.3669    788.82833     9.239763     9.239763     9.239763    75.014025 
   24900    295.94501   -10531.969            0   -9650.6953    -14783.27    788.37916    9.2380089    9.2380089    9.2380089    77.675709 
   25000     291.2069   -10510.539            0    -9643.375   -4057.7883    787.41452    9.2342396    9.2342396    9.2342396    98.286076 
Loop time of 13.0635 on 16 procs for 1000 steps with 1000 atoms

Performance: 6.614 ns/day, 3.629 hours/ns, 76.549 timesteps/s
94.9% CPU use with 16 MPI tasks x no OpenMP threads

MPI task timing breakdown:
Section |  min time  |  avg time  |  max time  |%varavg| %total
---------------------------------------------------------------
Pair    | 1.6031     | 1.7166     | 1.8495     |   4.5 | 13.14
Neigh   | 0.58392    | 0.60988    | 0.66939    |   2.4 |  4.67
Comm    | 0.44119    | 0.6336     | 0.74575    |   9.3 |  4.85
Output  | 6.4366     | 6.6673     | 10.075     |  34.1 | 51.04
Modify  | 0.020985   | 3.4293     | 3.66       |  47.5 | 26.25
Other   |            | 0.006874   |            |       |  0.05

Nlocal:    62.5 ave 70 max 59 min
Histogram: 4 2 4 2 1 1 1 0 0 1
Nghost:    1852.12 ave 1870 max 1834 min
Histogram: 1 1 1 3 2 2 3 1 1 1
Neighs:    0 ave 0 max 0 min
Histogram: 16 0 0 0 0 0 0 0 0 0
FullNghs:  18728.9 ave 20981 max 17476 min
Histogram: 2 2 3 3 2 2 1 0 0 1

Total # of neighbors = 299662
Ave neighs/atom = 299.662
Neighbor list builds = 1000
Dangerous builds not checked
Setting up Verlet run ...
  Unit style    : real
  Current step  : 25000
  Time step     : 1
Per MPI rank memory allocation (min/avg/max) = 4.578 | 4.579 | 4.58 Mbytes
Step Temp E_pair E_mol TotEng Press Volume Lx Ly Lz S/CPU 
   25000     291.2069   -10510.539            0    -9643.375   -4057.7883    787.41452    9.2342396    9.2342396    9.2342396            0 
   25100    292.71676   -10507.116            0   -9635.4557   -15354.179    786.00151    9.2287127    9.2287127    9.2287127    70.212622 
   25200    296.00958    -10508.42            0   -9626.9543    1551.3364    784.48008    9.2227543    9.2227543    9.2227543    74.685135 
   25300    304.25689   -10523.806            0   -9617.7808    6061.8513    783.58656    9.2192514    9.2192514    9.2192514    88.032387 
   25400    299.42035   -10501.306            0    -9609.683   -6784.1255    783.41198    9.2185667    9.2185667    9.2185667    61.810282 
   25500    310.85485   -10529.085            0   -9603.4126    2552.8504    783.44201    9.2186845    9.2186845    9.2186845     71.94248 
   25600    306.84459   -10512.392            0   -9598.6608   -7535.9458    783.52869    9.2190245    9.2190245    9.2190245    93.415225 
   25700    295.46174   -10474.423            0   -9594.5882    12715.458    783.82316    9.2201793    9.2201793    9.2201793    90.835685 
   25800     300.5927   -10487.109            0   -9591.9956    7049.5661    784.80417    9.2240242    9.2240242    9.2240242    68.356111 
   25900    297.41035   -10476.635            0   -9590.9978    3927.4759     786.4586    9.2305013    9.2305013    9.2305013    72.849013 
   26000    300.04812   -10481.483            0   -9587.9907   -5605.3961    788.50343    9.2384943    9.2384943    9.2384943    90.344706 
Loop time of 13.0209 on 16 procs for 1000 steps with 1000 atoms

Performance: 6.635 ns/day, 3.617 hours/ns, 76.800 timesteps/s
94.8% CPU use with 16 MPI tasks x no OpenMP threads

MPI task timing breakdown:
Section |  min time  |  avg time  |  max time  |%varavg| %total
---------------------------------------------------------------
Pair    | 1.6323     | 1.7262     | 1.7926     |   3.0 | 13.26
Neigh   | 0.59223    | 0.60855    | 0.64784    |   1.7 |  4.67
Comm    | 0.41407    | 0.5199     | 0.60392    |   6.3 |  3.99
Output  | 6.5521     | 6.7795     | 10.138     |  33.3 | 52.07
Modify  | 0.020628   | 3.3798     | 3.6073     |  47.2 | 25.96
Other   |            | 0.006858   |            |       |  0.05

Nlocal:    62.5 ave 66 max 59 min
Histogram: 2 1 2 0 3 2 0 3 2 1
Nghost:    1845.5 ave 1864 max 1828 min
Histogram: 6 0 0 1 1 0 1 3 1 3
Neighs:    0 ave 0 max 0 min
Histogram: 16 0 0 0 0 0 0 0 0 0
FullNghs:  18736.6 ave 19769 max 17564 min
Histogram: 2 0 2 1 2 2 1 3 1 2

Total # of neighbors = 299786
Ave neighs/atom = 299.786
Neighbor list builds = 1000
Dangerous builds not checked
Setting up Verlet run ...
  Unit style    : real
  Current step  : 26000
  Time step     : 1
Per MPI rank memory allocation (min/avg/max) = 4.578 | 4.579 | 4.58 Mbytes
Step Temp E_pair E_mol TotEng Press Volume Lx Ly Lz S/CPU 
   26000    300.04812   -10481.483            0   -9587.9907   -5605.3961    788.50343    9.2384943    9.2384943    9.2384943            0 
   26100    298.47075       -10475            0   -9586.2046    10473.057    790.44591    9.2460745    9.2460745    9.2460745    72.153237 
   26200    301.99847    -10483.39            0   -9584.0903   -19405.704    792.43239    9.2538134    9.2538134    9.2538134    67.208654 
   26300    295.44957   -10459.887            0   -9580.0888   -12709.736    793.60737    9.2583849    9.2583849    9.2583849    76.235826 
   26400    292.95663    -10450.08            0   -9577.7054   -12437.309    793.93804    9.2596706    9.2596706    9.2596706    90.125684 
   26500      301.083    -10473.66            0   -9577.0864   -14933.096    793.66656     9.258615     9.258615     9.258615    58.153407 
   26600    301.91406    -10473.73            0   -9574.6819   -16279.154    792.70944    9.2548917    9.2548917    9.2548917    77.305747 
   26700    300.38047   -10467.332            0   -9572.8508   -2078.6591    791.27953    9.2493237    9.2493237    9.2493237    92.567671 
   26800    298.31031    -10459.98            0   -9571.6633    10058.684    790.04383    9.2445064    9.2445064    9.2445064    69.334473 
   26900    301.63353   -10469.335            0   -9571.1217   -1405.7845    789.00828    9.2404656    9.2404656    9.2404656    68.140395 
   27000    297.95053   -10458.124            0   -9570.8785    2510.1099    787.72281    9.2354446    9.2354446    9.2354446    87.239521 
Loop time of 13.4447 on 16 procs for 1000 steps with 1000 atoms

Performance: 6.426 ns/day, 3.735 hours/ns, 74.379 timesteps/s
94.9% CPU use with 16 MPI tasks x no OpenMP threads

MPI task timing breakdown:
Section |  min time  |  avg time  |  max time  |%varavg| %total
---------------------------------------------------------------
Pair    | 1.6315     | 1.7075     | 1.9717     |   5.5 | 12.70
Neigh   | 0.58739    | 0.60967    | 0.70033    |   3.5 |  4.53
Comm    | 0.38062    | 0.73504    | 0.83324    |  11.3 |  5.47
Output  | 6.9353     | 7.1528     | 10.363     |  31.0 | 53.20
Modify  | 0.021048   | 3.2329     | 3.4508     |  46.1 | 24.05
Other   |            | 0.006846   |            |       |  0.05

Nlocal:    62.5 ave 69 max 58 min
Histogram: 3 1 4 2 0 2 2 0 0 2
Nghost:    1848.56 ave 1869 max 1828 min
Histogram: 1 0 2 3 2 3 3 1 0 1
Neighs:    0 ave 0 max 0 min
Histogram: 16 0 0 0 0 0 0 0 0 0
FullNghs:  18746.4 ave 20855 max 17393 min
Histogram: 1 3 4 2 0 2 2 0 0 2

Total # of neighbors = 299942
Ave neighs/atom = 299.942
Neighbor list builds = 1000
Dangerous builds not checked
Setting up Verlet run ...
  Unit style    : real
  Current step  : 27000
  Time step     : 1
Per MPI rank memory allocation (min/avg/max) = 4.578 | 4.579 | 4.58 Mbytes
Step Temp E_pair E_mol TotEng Press Volume Lx Ly Lz S/CPU 
   27000    297.95053   -10458.124            0   -9570.8785    2510.1099    787.72281    9.2354446    9.2354446    9.2354446            0 
   27100    304.04258   -10478.111            0   -9572.7244    9289.8033    786.71726    9.2315132    9.2315132    9.2315132    68.465923 
   27200    300.88745   -10470.242            0   -9574.2509    1767.5298    786.00923    9.2287429    9.2287429    9.2287429    72.781415 
   27300    302.96494    -10479.24            0   -9577.0619    16196.834    785.28163    9.2258944    9.2258944    9.2258944    87.394197 
   27400    303.05565   -10483.663            0   -9581.2153   -10186.476    785.28225    9.2258968    9.2258968    9.2258968    98.483379 
   27500    307.70134   -10501.448            0   -9585.1663      11123.5     785.5917    9.2271085    9.2271085    9.2271085    62.341127 
   27600    305.99461   -10500.307            0   -9589.1071    4131.3919    786.26911    9.2297599    9.2297599    9.2297599    73.350901 
   27700     304.8418   -10500.871            0   -9593.1039    8504.3091    786.71883    9.2315193    9.2315193    9.2315193    81.770889 
   27800    296.95965   -10482.561            0   -9598.2661   -22278.725    786.97679    9.2325282    9.2325282    9.2325282    63.345333 
   27900    293.67249   -10477.358            0   -9602.8515     -8393.21    786.43751    9.2304188    9.2304188    9.2304188    79.577152 
   28000    305.43444   -10517.299            0   -9607.7673   -21027.302    784.74708    9.2238005    9.2238005    9.2238005    73.649806 
Loop time of 13.3776 on 16 procs for 1000 steps with 1000 atoms

Performance: 6.459 ns/day, 3.716 hours/ns, 74.752 timesteps/s
[...]
  385700    297.81952    -11436.66            0   -10549.804    13285.188    751.26386    9.0907036    9.0907036    9.0907036    80.485573 
  385800    301.99057   -11457.988            0   -10558.711    5229.8775    751.90523    9.0932899    9.0932899    9.0932899    64.227346 
  385900    292.39024   -11434.156            0   -10563.468   -3477.3107    752.65578    9.0963145    9.0963145    9.0963145    91.075807 
  386000    291.04455   -11432.486            0   -10565.805    389.94569    752.99419    9.0976776    9.0976776    9.0976776    86.917879 
  386100    296.16713    -11448.53            0   -10566.594   -21698.243    752.87994    9.0972174    9.0972174    9.0972174    63.063096 
  386200    290.51427   -11430.084            0   -10564.982   -8436.5309    752.21557    9.0945407    9.0945407    9.0945407    81.449436 
  386300    296.94726   -11448.284            0   -10564.026    106.10025    751.37472    9.0911508    9.0911508    9.0911508    66.660084 
  386400    299.06151   -11451.262            0   -10560.708   -632.78369    750.74588    9.0886138    9.0886138    9.0886138    62.799651 
  386500    294.32506   -11431.505            0   -10555.055   -4016.3089    750.11329    9.0860604    9.0860604    9.0860604    78.747872 
  386600    298.22943   -11438.949            0   -10550.872    18798.635    749.46654    9.0834483    9.0834483    9.0834483     76.74878 
  386700     298.9482    -11435.61            0   -10545.393    1299.4636    749.16741    9.0822397    9.0822397    9.0822397    57.128764 
  386800    298.67228   -11429.026            0   -10539.631    2109.1143    749.32761     9.082887     9.082887     9.082887    103.65486 
  386900    298.57729   -11423.282            0    -10534.17    13397.547    750.05308    9.0858173    9.0858173    9.0858173    54.849292 
  387000    299.21453   -11419.782            0   -10528.772    3255.5148     751.3059    9.0908732    9.0908732    9.0908732    67.976122 
  387100     300.4611   -11417.007            0   -10522.285   -1711.6375    752.65121    9.0962961    9.0962961    9.0962961    102.59073 
  387200     311.6023   -11445.176            0   -10517.277   -24460.466    753.79177    9.1008886    9.1008886    9.1008886    61.648332 
  387300    304.69673   -11416.899            0   -10509.564    1219.5843     754.3178    9.1030051    9.1030051    9.1030051    85.429189 
  387400    303.25212   -11406.159            0   -10503.126   -13726.193    754.45612    9.1035615    9.1035615    9.1035615    82.136761 
  387500    297.55275   -11383.198            0   -10497.136   -11518.505    753.90335    9.1013376    9.1013376    9.1013376    62.147841 
  387600    289.58051    -11353.51            0   -10491.189   -14422.666      752.769    9.0967706    9.0967706    9.0967706    70.820985 
  387700    305.22433   -11396.475            0   -10487.569     12483.27    751.12325    9.0901365    9.0901365    9.0901365    79.023949 
  387800    308.27402   -11402.683            0   -10484.696    9080.4831    749.45563    9.0834043    9.0834043    9.0834043    57.373711 
  387900     302.5568   -11381.851            0   -10480.889    18251.812    748.18815    9.0782807    9.0782807    9.0782807    67.373598 
  388000    303.64818   -11384.284            0   -10480.071    9301.1044    747.68588    9.0762488    9.0762488    9.0762488    78.993868 
  388100    304.07197   -11384.569            0   -10479.094    13733.267    747.89928    9.0771122    9.0771122    9.0771122    54.567136 
  388200    310.30211   -11404.961            0   -10480.934    24584.094    749.01308     9.081616     9.081616     9.081616    83.006378 
  388300     301.0298   -11382.229            0   -10485.814   -5522.9765    751.17174    9.0903321    9.0903321    9.0903321    72.859087 
  388400    303.13716    -11394.39            0   -10491.699    -5298.078    753.63992    9.1002774    9.1002774    9.1002774    68.627423 
  388500    299.55106   -11393.288            0   -10501.276   -12911.866    755.72099    9.1086461    9.1086461    9.1086461    93.228176 
  388600    295.33371   -11394.799            0   -10515.346   -27473.186    756.82916    9.1130961    9.1130961    9.1130961    72.560455 
  388700    287.19011   -11387.598            0   -10532.395   -25403.622    756.51591    9.1118387    9.1118387    9.1118387    68.678769 
  388800    291.36799    -11414.12            0   -10546.476    -17466.21    754.82405    9.1050411    9.1050411    9.1050411    95.463927 
  388900    291.36048   -11424.589            0   -10556.967   -57.637916    752.10731    9.0941044    9.0941044    9.0941044    58.450423 
  389000    292.86369   -11434.836            0   -10562.738    13673.168    749.30467    9.0827943    9.0827943    9.0827943    69.928015 
  389100    294.29621   -11441.994            0    -10565.63    10782.507    747.21812    9.0743557    9.0743557    9.0743557    88.527486 
  389200    295.36276   -11446.124            0   -10566.584    12321.025    746.05167    9.0696314    9.0696314    9.0696314     58.32412 
  389300    290.62098   -11429.996            0   -10564.577    19226.312    745.94294    9.0691907    9.0691907    9.0691907    68.927577 
  389400    298.45843   -11452.677            0   -10563.918     15552.82    747.11319    9.0739309    9.0739309    9.0739309    85.201385 
  389500    280.50297   -11392.779            0   -10557.489   -478.31935    749.47908     9.083499     9.083499     9.083499    70.156199 
  389600    286.82586   -11406.487            0   -10552.368   -7301.6739    752.65278    9.0963024    9.0963024    9.0963024    81.441712 
  389700    292.22479   -11414.288            0   -10544.093   -4748.6921    755.78518     9.108904     9.108904     9.108904    59.369396 
  389800    291.69456   -11401.888            0   -10533.271    -22556.79    758.21318    9.1186478    9.1186478    9.1186478    71.225088 
  389900    298.10068    -11409.92            0   -10522.228   -33879.277    759.05024    9.1220022    9.1220022    9.1220022    96.078919 
  390000    296.81482   -11395.272            0   -10511.408   -21200.937    757.65168    9.1163963    9.1163963    9.1163963    61.302951 
  390100    305.92449   -11414.733            0   -10503.743   -8821.7734     754.6177    9.1042113    9.1042113    9.1042113    80.683473 
  390200    305.10106   -11404.529            0    -10495.99    8651.7478    750.74194     9.088598     9.088598     9.088598    80.918825 
  390300    309.39177    -11412.18            0   -10490.865    23975.081    747.21327    9.0743361    9.0743361    9.0743361    65.065834 
  390400    307.82665   -11404.248            0   -10487.593    22681.531    744.79528    9.0645373    9.0645373    9.0645373    85.565377 
  390500    317.62468   -11431.952            0    -10486.12    28616.958    744.09315    9.0616879    9.0616879    9.0616879    80.397235 
  390600    306.95749   -11400.988            0   -10486.921     32334.88    745.57779    9.0677107    9.0677107    9.0677107    60.108827 
  390700    306.39004   -11401.418            0   -10489.041    489.06011    748.98474    9.0815015    9.0815015    9.0815015    84.018734 
  390800    300.13739    -11382.71            0   -10488.952    10642.315    753.26123    9.0987529    9.0987529    9.0987529    89.062592 
  390900     308.5431   -11409.402            0   -10490.614   -30448.784     757.7196    9.1166687    9.1166687    9.1166687    65.945305 
  391000    300.21639   -11384.782            0   -10490.788   -40730.475    761.00782    9.1298373    9.1298373    9.1298373    73.947392 
  391100    305.13439   -11400.421            0   -10491.783   -49178.358    762.02886    9.1339187    9.1339187    9.1339187    65.133542 
  391200    298.55301   -11381.077            0   -10492.037    -22313.09      760.478    9.1277181    9.1277181    9.1277181    63.724154 
  391300    295.86708   -11374.642            0     -10493.6   -15400.139    757.22623    9.1146896    9.1146896    9.1146896    81.809751 
  391400    300.49839   -11390.757            0   -10495.924   -4003.8645    753.28079    9.0988317    9.0988317    9.0988317    62.550824 
  391500     302.0234   -11395.576            0   -10496.201    5555.4347    749.30196    9.0827834    9.0827834    9.0827834    71.047008 
  391600    303.91773   -11405.463            0   -10500.448    24179.554    746.02144    9.0695088    9.0695088    9.0695088    67.986242 
  391700    298.76857   -11394.292            0    -10504.61    38600.998    744.25387    9.0623403    9.0623403    9.0623403    63.927731 
  391800    309.16905   -11435.469            0   -10514.816    27649.069    744.39278    9.0629041    9.0629041    9.0629041    72.248658 
  391900    287.68939   -11383.348            0   -10526.658    6450.4553    746.16626    9.0700957    9.0700957    9.0700957    58.926685 
  392000    294.11864    -11420.22            0   -10544.385    14161.199    748.80736    9.0807845    9.0807845    9.0807845    71.945301 
  392100    293.37417   -11431.251            0   -10557.633    2631.6141    751.83752    9.0930169    9.0930169    9.0930169    71.328731 
  392200    296.55854   -11450.644            0   -10567.543   -7089.1515    754.35528    9.1031558    9.1031558    9.1031558    68.844194 
  392300    301.86644   -11473.204            0   -10574.297   -19609.145    755.77503    9.1088632    9.1088632    9.1088632    68.158756 
  392400    290.98921   -11444.404            0   -10577.888   -17523.427    755.79719    9.1089522    9.1089522    9.1089522    59.832892 
  392500    298.68681   -11468.206            0   -10578.768   -7879.0755    754.55106    9.1039433    9.1039433    9.1039433    73.831871 
  392600     293.8167   -11453.181            0   -10578.245   -7214.0158    752.71226     9.096542     9.096542     9.096542    73.020641 
  392700    303.16475   -11479.655            0   -10576.882   -5782.5171    750.51512    9.0876826    9.0876826    9.0876826    58.965927 
  392800    283.91039   -11416.397            0    -10570.96     25437.63    748.50058    9.0795442    9.0795442    9.0795442    82.586151 
  392900    289.12674   -11425.501            0   -10564.531    15597.262    747.29262    9.0746573    9.0746573    9.0746573    96.380646 
  393000    299.38123     -11447.9            0   -10556.394    19388.461    747.20572    9.0743055    9.0743055    9.0743055    52.408181 
  393100    303.42157   -11451.187            0    -10547.65    6953.3671     748.2909    9.0786963    9.0786963    9.0786963    75.823715 
  393200    290.54365   -11402.603            0   -10537.413    12398.873    749.87313    9.0850906    9.0850906    9.0850906    58.225341 
  393300    301.78259   -11427.959            0   -10529.302   -10398.635    751.83177    9.0929937    9.0929937    9.0929937    84.037014 
  393400    303.06106   -11424.655            0   -10522.191   -6672.2064    753.71148    9.1005654    9.1005654    9.1005654    80.949323 
  393500    304.54181    -11423.09            0   -10516.217   -6372.6248    755.32663    9.1070614    9.1070614    9.1070614     69.57563 
  393600    304.37194   -11417.729            0   -10511.361   -14219.638    756.47813     9.111687     9.111687     9.111687     83.39074 
  393700     305.0189   -11416.442            0   -10508.148   -19053.318    756.83465    9.1131182    9.1131182    9.1131182    80.150251 
  393800    301.17746   -11402.564            0   -10505.709   -18872.507    756.31772    9.1110429    9.1110429    9.1110429    65.925561 
  393900    303.72219   -11408.679            0   -10504.247    -4968.971    755.06087    9.1059932    9.1059932    9.1059932    70.852249 
  394000    304.54329    -11410.07            0   -10503.192    955.44308    753.47604    9.0996178    9.0996178    9.0996178    93.565972 
  394100    293.60111   -11375.883            0   -10501.589    11145.011    751.54063    9.0918199    9.0918199    9.0918199    57.742486 
  394200    316.46762   -11444.756            0    -10502.37   -587.20691    749.77975    9.0847135    9.0847135    9.0847135    73.625291 
  394300    295.64085   -11381.937            0   -10501.569    9398.9488    748.50716    9.0795708    9.0795708    9.0795708    92.307755 
  394400    313.57171   -11437.675            0   -10503.912    988.12895    748.30286    9.0787447    9.0787447    9.0787447    65.602115 
  394500    299.76329   -11398.326            0   -10505.682    6654.5223    749.01408      9.08162      9.08162      9.08162    65.397858 
  394600    299.65648   -11399.411            0   -10507.085    15739.483    750.33108    9.0869397    9.0869397    9.0869397    69.412087 
  394700    302.40921   -11410.714            0   -10510.191   -8888.4908     752.2001    9.0944784    9.0944784    9.0944784    62.103746 
  394800    295.59089   -11392.058            0   -10511.839    970.74484     753.9729    9.1016175    9.1016175    9.1016175    69.322428 
  394900     302.8586   -11416.643            0   -10514.782   -4233.7234    755.49101     9.107722     9.107722     9.107722    94.980631 
  395000    312.93601   -11451.702            0   -10519.832   -16112.336    756.38054    9.1112951    9.1112951    9.1112951    66.429665 
  395100    312.15515   -11454.739            0   -10525.194   -9601.8609    756.41804    9.1114457    9.1114457    9.1114457    88.352757 
  395200    287.99578   -11387.723            0    -10530.12    -8660.187    755.72963    9.1086808    9.1086808    9.1086808    59.964269 
  395300    299.23244   -11431.572            0   -10540.509   -4359.4149    754.39608      9.10332      9.10332      9.10332    84.219639 
  395400    286.66885   -11403.164            0   -10549.514   -2264.4657    752.61739    9.0961598    9.0961598    9.0961598    81.704142 
  395500    287.45934   -11415.348            0   -10559.343    2453.8833    750.53021    9.0877435    9.0877435    9.0877435    61.370078 
  395600    294.04643   -11443.862            0   -10568.242    4968.8868    748.95668     9.081388     9.081388     9.081388    91.674108 
  395700    283.97866   -11420.847            0   -10575.207    9861.6406    747.96161    9.0773644    9.0773644    9.0773644     86.86536 
  395800    277.18607   -11406.677            0   -10581.264    14460.495    747.65242    9.0761134    9.0761134    9.0761134    55.383655 
  395900    294.73927   -11464.339            0   -10586.655    6483.6576    747.94917     9.077314     9.077314     9.077314    100.09592 
  396000    286.12684   -11438.587            0    -10586.55    11153.141    748.79106    9.0807186    9.0807186    9.0807186    83.364856 
  396100    288.54238   -11446.304            0   -10587.074   -15968.284     750.0833    9.0859393    9.0859393    9.0859393     65.80905 
  396200    286.34512   -11435.691            0   -10583.004   -4809.2115    751.17701    9.0903533    9.0903533    9.0903533    71.699394 
  396300    294.54829   -11453.762            0   -10576.648   -8674.5956    751.86533     9.093129     9.093129     9.093129    82.679429 
  396400    294.55243   -11443.956            0   -10566.829   -1267.3281    752.06321    9.0939267    9.0939267    9.0939267    67.772593 
  396500    288.36343   -11412.319            0   -10553.622   -9476.6603     751.9265    9.0933756    9.0933756    9.0933756    75.001476 
  396600    296.79102    -11423.33            0   -10539.537   -3416.7754    751.40958    9.0912914    9.0912914    9.0912914    87.581094 
  396700    294.05225   -11401.425            0   -10525.788   -235.01211     750.5382    9.0877757    9.0877757    9.0877757    53.151501 
  396800    317.23558   -11462.537            0   -10517.863     2929.589    749.86081    9.0850409    9.0850409    9.0850409    75.218794 
  396900    303.29442   -11412.567            0   -10509.408    17929.131     749.9601    9.0854418    9.0854418    9.0854418    82.682828 
  397000    302.42594   -11405.958            0   -10505.386    -4810.347    750.69591    9.0884122    9.0884122    9.0884122    51.475601 
  397100    306.44376   -11415.808            0   -10503.271   -1102.5903    751.52263    9.0917473    9.0917473    9.0917473    80.042965 
  397200    299.79059   -11394.598            0   -10501.873    6260.9195    752.45544    9.0955074    9.0955074    9.0955074    58.237669 
  397300     297.5855   -11386.927            0   -10500.768   -8150.5507    753.40621    9.0993366    9.0993366    9.0993366    84.833082 
  397400    296.11114   -11380.766            0   -10498.997   -5122.5899    753.80197    9.1009296    9.1009296    9.1009296    78.538359 
  397500      306.793   -11413.752            0   -10500.175   -4398.1569    753.85325     9.101136     9.101136     9.101136     62.64684 
  397600    304.39291   -11406.789            0   -10500.359   -8155.0997    753.54187    9.0998827    9.0998827    9.0998827    85.882858 
  397700     307.2817   -11416.757            0   -10501.724   -12353.675    753.00672    9.0977281    9.0977281    9.0977281     60.57223 
  397800    300.60882   -11398.252            0    -10503.09    16085.726    752.14845    9.0942702    9.0942702    9.0942702    67.141978 
  397900    293.43456   -11378.941            0   -10505.143   -4357.5867    751.49328    9.0916289    9.0916289    9.0916289    89.467594 
  398000    310.63745   -11435.388            0   -10510.363   -10024.235    751.02085    9.0897233    9.0897233    9.0897233    62.248705 
  398100    309.81251   -11435.808            0   -10513.239    9082.5237    750.82478    9.0889322    9.0889322    9.0889322    73.238573 
  398200    301.44286   -11415.969            0   -10518.324    5124.4354    750.95211     9.089446     9.089446     9.089446    86.349501 
  398300    296.70952   -11409.139            0   -10525.589   -728.94785    751.35247     9.091061     9.091061     9.091061    90.582337 
  398400    299.19862   -11425.824            0   -10534.862    3010.1923    751.65774    9.0922921    9.0922921    9.0922921    57.448787 
  398500    293.76188   -11418.149            0   -10543.376    1689.6909     751.8855    9.0932103    9.0932103    9.0932103    93.788486 
  398600    293.77412   -11427.006            0   -10552.197   -9181.1955    751.99212    9.0936401    9.0936401    9.0936401    45.913828 
  398700    301.39589   -11460.051            0   -10562.545   -8845.1499     751.8502     9.093068     9.093068     9.093068    102.09759 
  398800    296.03608   -11453.131            0   -10571.586    9330.9748    751.50557    9.0916785    9.0916785    9.0916785    75.153237 
  398900    286.92198   -11433.794            0   -10579.389   -7649.5305    750.88215    9.0891638    9.0891638    9.0891638    58.485287 
  399000    296.62129   -11470.437            0    -10587.15    7437.3358    749.89641    9.0851846    9.0851846    9.0851846    76.191518 
Loop time of 1364.84 on 16 procs for 100000 steps with 1000 atoms

Performance: 6.330 ns/day, 3.791 hours/ns, 73.268 timesteps/s
94.8% CPU use with 16 MPI tasks x no OpenMP threads

MPI task timing breakdown:
Section |  min time  |  avg time  |  max time  |%varavg| %total
---------------------------------------------------------------
Pair    | 155.27     | 167.65     | 194.93     |  77.9 | 12.28
Neigh   | 58.769     | 62.492     | 72.209     |  41.9 |  4.58
Comm    | 28.743     | 65.687     | 80.1       | 163.8 |  4.81
Output  | 702.46     | 725.49     | 1066.1     | 326.6 | 53.16
Modify  | 2.0584     | 342.83     | 365.91     | 475.2 | 25.12
Other   |            | 0.6962     |            |       |  0.05

Nlocal:    62.5 ave 68 max 53 min
Histogram: 1 0 1 0 2 2 3 1 3 3
Nghost:    1913.56 ave 1937 max 1891 min
Histogram: 2 0 3 1 2 1 4 1 1 1
Neighs:    0 ave 0 max 0 min
Histogram: 16 0 0 0 0 0 0 0 0 0
FullNghs:  19681.8 ave 21528 max 16662 min
Histogram: 1 0 1 0 2 4 2 2 1 3

Total # of neighbors = 314908
Ave neighs/atom = 314.908
Neighbor list builds = 100000
Dangerous builds not checked
Total wall time: 1:29:29
