LAMMPS (16 Mar 2018)
Reading data file ...
  orthogonal box = (-4.7176 -4.7176 -4.7176) to (4.7176 4.7176 4.7176)
  2 by 2 by 4 MPI processor grid
  reading atoms ...
  1000 atoms
Reading potential file /home/fs01/ajm529/lammps-16Mar18/potentials/sw_potentials/AG/eps2.23.sw with DATE: 2008-01-29
Neighbor list info ...
  update every 1 steps, delay 0 steps, check no
  max neighbors/atom: 2000, page size: 100000
  master list distance cutoff = 3.836
  ghost atom cutoff = 3.836
  binsize = 1.918, bins = 5 5 5
  1 neighbor lists, perpetual/occasional/extra = 1 0 0
  (1) pair sw, perpetual
      attributes: full, newton on
      pair build: full/bin/atomonly
      stencil: full/bin/3d
      bin: standard
Setting up Verlet run ...
  Unit style    : real
  Current step  : 0
  Time step     : 1
Per MPI rank memory allocation (min/avg/max) = 3.517 | 3.585 | 4.577 Mbytes
Step Temp E_pair E_mol TotEng Press Volume Lx Ly Lz S/CPU 
       0          300   -10110.324            0   -9216.9752   -22518.629    839.94755    9.4351916    9.4351916    9.4351916            0 
     100     329.6244   -10203.653            0   -9222.0879   -55154.266    838.15516    9.4284754    9.4284754    9.4284754    40.759297 
     200    328.85205   -10218.002            0   -9238.7371   -41555.764    832.26492    9.4063369    9.4063369    9.4063369    39.578897 
     300    334.45928    -10258.08            0   -9262.1176   -26311.771    823.12026    9.3717587    9.3717587    9.3717587    37.858247 
     400    334.37337   -10281.996            0   -9286.2892   -14750.771     812.3287    9.3306221    9.3306221    9.3306221    48.911104 
     500    329.23513   -10286.191            0   -9305.7848   -13387.123    801.87128    9.2904101    9.2904101    9.2904101    44.055895 
     600    344.01985   -10348.566            0   -9324.1337    4706.7607    792.67994     9.254777     9.254777     9.254777    46.013989 
     700    334.36939   -10335.053            0   -9339.3576    26342.496    785.45907    9.2265892    9.2265892    9.2265892    60.104647 
     800    326.56307   -10328.905            0   -9356.4559    19953.013    780.69552    9.2078993    9.2078993    9.2078993    51.318456 
     900    329.53595    -10356.97            0   -9375.6678    18662.875     778.3955    9.1988479    9.1988479    9.1988479    36.184979 
    1000    327.21762   -10371.469            0   -9397.0709    13436.273    778.34635    9.1986543    9.1986543    9.1986543    43.873352 
Loop time of 22.7644 on 16 procs for 1000 steps with 1000 atoms

Performance: 3.795 ns/day, 6.323 hours/ns, 43.928 timesteps/s
94.4% CPU use with 16 MPI tasks x no OpenMP threads

MPI task timing breakdown:
Section |  min time  |  avg time  |  max time  |%varavg| %total
---------------------------------------------------------------
Pair    | 1.5854     | 1.6677     | 1.8971     |   5.1 |  7.33
Neigh   | 0.58647    | 0.60635    | 0.68448    |   2.9 |  2.66
Comm    | 0.32284    | 0.63011    | 0.73137    |  10.9 |  2.77
Output  | 13.548     | 13.944     | 19.83      |  40.7 | 61.26
Modify  | 0.021691   | 5.9089     | 6.3056     |  62.5 | 25.96
Other   |            | 0.006925   |            |       |  0.03

Nlocal:    62.5 ave 65 max 59 min
Histogram: 1 1 0 2 0 4 3 0 3 2
Nghost:    1869.81 ave 1878 max 1853 min
Histogram: 1 0 0 0 2 1 5 2 2 3
Neighs:    0 ave 0 max 0 min
Histogram: 16 0 0 0 0 0 0 0 0 0
FullNghs:  18949.4 ave 19789 max 17871 min
Histogram: 2 0 1 1 2 3 1 2 2 2

Total # of neighbors = 303190
Ave neighs/atom = 303.19
Neighbor list builds = 1000
Dangerous builds not checked
Setting up Verlet run ...
  Unit style    : real
  Current step  : 1000
  Time step     : 1
Per MPI rank memory allocation (min/avg/max) = 3.767 | 4.426 | 4.58 Mbytes
Step Temp E_pair E_mol TotEng Press Volume Lx Ly Lz S/CPU 
    1000    327.21762   -10371.469            0   -9397.0709    13436.273    778.34635    9.1986543    9.1986543    9.1986543            0 
    1100    325.92851   -10388.773            0   -9418.2136     28769.17    779.99476    9.2051435    9.2051435    9.2051435    31.783887 
    1200    320.08391    -10393.55            0   -9440.3951    7504.3707    782.78834    9.2161199    9.2161199    9.2161199    50.514497 
    1300     319.0008   -10409.907            0   -9459.9769     10509.08    785.96599    9.2285737    9.2285737    9.2285737    41.631901 
    1400     313.2242   -10411.295            0   -9478.5672    8140.8855    789.22017    9.2412927    9.2412927    9.2412927    33.893013 
    1500    299.05465   -10386.537            0   -9496.0038   -5316.3667    792.03626    9.2522712    9.2522712    9.2522712    37.748436 
    1600    305.92131    -10424.63            0   -9513.6486     -9045.06    794.27483    9.2609797    9.2609797    9.2609797    46.503331 
    1700    308.71216   -10448.412            0   -9529.1197   -12911.295    795.57623    9.2660349    9.2660349    9.2660349    43.716725 
    1800    312.26624   -10473.005            0   -9543.1293   -22769.544      795.628    9.2662359    9.2662359    9.2662359    43.262139 
    1900     304.8266   -10463.115            0   -9555.3933   -10054.357    794.18886    9.2606456    9.2606456    9.2606456    53.948905 
    2000    292.94234   -10439.083            0   -9566.7511    -19570.96    791.94806    9.2519278    9.2519278    9.2519278    52.280941 
Loop time of 23.6432 on 16 procs for 1000 steps with 1000 atoms

Performance: 3.654 ns/day, 6.568 hours/ns, 42.296 timesteps/s
94.5% CPU use with 16 MPI tasks x no OpenMP threads

MPI task timing breakdown:
Section |  min time  |  avg time  |  max time  |%varavg| %total
---------------------------------------------------------------
Pair    | 1.6534     | 1.7888     | 2.4847     |  17.4 |  7.57
Neigh   | 0.58289    | 0.62894    | 0.83107    |   8.8 |  2.66
Comm    | 0.27147    | 1.1689     | 1.3414     |  27.9 |  4.94
Output  | 12.535     | 13.007     | 20.025     |  50.2 | 55.01
Modify  | 0.022999   | 7.0429     | 7.5152     |  68.3 | 29.79
Other   |            | 0.006998   |            |       |  0.03

Nlocal:    62.5 ave 68 max 56 min
Histogram: 2 1 1 1 1 4 1 1 1 3
Nghost:    1838.88 ave 1862 max 1813 min
Histogram: 1 0 1 3 3 2 2 2 0 2
Neighs:    0 ave 0 max 0 min
Histogram: 16 0 0 0 0 0 0 0 0 0
FullNghs:  18636 ave 20462 max 16741 min
Histogram: 1 2 1 2 1 3 1 2 1 2

Total # of neighbors = 298176
Ave neighs/atom = 298.176
Neighbor list builds = 1000
Dangerous builds not checked
Setting up Verlet run ...
  Unit style    : real
  Current step  : 2000
  Time step     : 1
Per MPI rank memory allocation (min/avg/max) = 3.767 | 4.528 | 4.581 Mbytes
Step Temp E_pair E_mol TotEng Press Volume Lx Ly Lz S/CPU 
    2000    292.94234   -10439.083            0   -9566.7511    -19570.96    791.94806    9.2519278    9.2519278    9.2519278            0 
    2100     291.4527   -10445.371            0   -9577.4745   -10217.918      788.894    9.2400194    9.2400194    9.2400194    34.394625 
    2200    300.11665   -10480.964            0    -9587.268   -6038.3867    785.49494    9.2267297    9.2267297    9.2267297    38.250016 
    2300    306.57977   -10509.666            0   -9596.7234    207.30144    781.89053    9.2125951    9.2125951    9.2125951    39.285204 
    2400    293.18157   -10478.425            0   -9605.3805    14564.524     778.1114    9.1977287    9.1977287    9.1977287    51.337314 
    2500    303.25234   -10518.141            0   -9615.1072    14334.826    775.28449    9.1865765    9.1865765    9.1865765    58.619886 
    2600    298.67267   -10513.808            0    -9624.412     15269.39    773.76413    9.1805675    9.1805675    9.1805675    35.088385 
    2700    301.33972   -10530.746            0   -9633.4075    35995.168    773.33077    9.1788533    9.1788533    9.1788533    60.373515 
    2800    302.82711   -10544.326            0   -9642.5584    14490.666    774.35814    9.1829162    9.1829162    9.1829162    37.172245 
    2900     293.2059   -10525.121            0   -9652.0037    21148.804    776.67605    9.1920696    9.1920696    9.1920696    36.508562 
    3000    291.70036   -10527.271            0   -9658.6368    5182.4605     779.6429    9.2037591    9.2037591    9.2037591    43.688739 
Loop time of 23.9456 on 16 procs for 1000 steps with 1000 atoms

Performance: 3.608 ns/day, 6.652 hours/ns, 41.761 timesteps/s
94.3% CPU use with 16 MPI tasks x no OpenMP threads

MPI task timing breakdown:
Section |  min time  |  avg time  |  max time  |%varavg| %total
---------------------------------------------------------------
Pair    | 1.6298     | 1.7666     | 1.9866     |   5.7 |  7.38
Neigh   | 0.57687    | 0.61325    | 0.67772    |   2.6 |  2.56
Comm    | 0.34853    | 0.63289    | 0.80645    |  11.7 |  2.64
Output  | 13.842     | 14.287     | 20.903     |  45.2 | 59.67
Modify  | 0.021487   | 6.6387     | 7.0837     |  66.3 | 27.72
Other   |            | 0.006936   |            |       |  0.03

Nlocal:    62.5 ave 66 max 58 min
Histogram: 1 2 0 3 0 2 2 2 1 3
Nghost:    1872.44 ave 1909 max 1853 min
Histogram: 1 6 3 0 1 2 1 1 0 1
Neighs:    0 ave 0 max 0 min
Histogram: 16 0 0 0 0 0 0 0 0 0
FullNghs:  18936.6 ave 20190 max 17557 min
Histogram: 3 0 1 2 0 4 0 3 0 3

Total # of neighbors = 302986
Ave neighs/atom = 302.986
Neighbor list builds = 1000
Dangerous builds not checked
Setting up Verlet run ...
  Unit style    : real
  Current step  : 3000
  Time step     : 1
Per MPI rank memory allocation (min/avg/max) = 4.576 | 4.578 | 4.581 Mbytes
Step Temp E_pair E_mol TotEng Press Volume Lx Ly Lz S/CPU 
    3000    291.70036   -10527.271            0   -9658.6368    5182.4605     779.6429    9.2037591    9.2037591    9.2037591            0 
    3100    289.66585   -10525.471            0    -9662.896    -17563.79    782.47838    9.2149033    9.2149033    9.2149033    41.966243 
    3200    290.90918   -10530.586            0   -9664.3083   -9585.0749    784.46594    9.2226989    9.2226989    9.2226989    41.587759 
    3300    288.30468   -10522.026            0   -9663.5039   -19332.853    785.51036    9.2267901    9.2267901    9.2267901    39.855521 
    3400    297.25372    -10546.32            0   -9661.1494   -18440.709    785.24048    9.2257333    9.2257333    9.2257333    41.311071 
    3500    294.01302   -10531.235            0   -9655.7142   -429.12844    783.96329    9.2207287    9.2207287    9.2207287    49.870337 
    3600    294.81578   -10527.583            0    -9649.672    600.99062    782.62876    9.2154936    9.2154936    9.2154936    34.920652 
    3700    299.66113   -10534.535            0    -9642.195    6510.1624     781.4332    9.2107986    9.2107986    9.2107986    44.243314 
    3800    296.82215   -10517.248            0   -9633.3626   -3579.1968     780.6577    9.2077506    9.2077506    9.2077506    45.603438 
    3900    304.68778   -10530.151            0   -9622.8432    13002.709    780.01058    9.2052057    9.2052057    9.2052057    45.161956 
    4000    293.71753   -10487.236            0   -9612.5952   -4558.1621    779.67968    9.2039038    9.2039038    9.2039038    45.214955 
Loop time of 23.465 on 16 procs for 1000 steps with 1000 atoms

Performance: 3.682 ns/day, 6.518 hours/ns, 42.617 timesteps/s
94.4% CPU use with 16 MPI tasks x no OpenMP threads

MPI task timing breakdown:
Section |  min time  |  avg time  |  max time  |%varavg| %total
---------------------------------------------------------------
Pair    | 1.6897     | 1.7832     | 2.1806     |   9.0 |  7.60
Neigh   | 0.5969     | 0.62195    | 0.74763    |   4.9 |  2.65
Comm    | 0.36132    | 0.88453    | 1.0021     |  16.9 |  3.77
Output  | 12.977     | 13.428     | 20.145     |  47.3 | 57.23
Modify  | 0.022756   | 6.7398     | 7.1919     |  66.8 | 28.72
Other   |            | 0.007012   |            |       |  0.03

Nlocal:    62.5 ave 67 max 58 min
Histogram: 1 2 0 2 4 2 2 0 1 2
Nghost:    1867.38 ave 1887 max 1852 min
Histogram: 1 1 3 3 2 3 0 1 1 1
Neighs:    0 ave 0 max 0 min
Histogram: 16 0 0 0 0 0 0 0 0 0
FullNghs:  18910.9 ave 20228 max 17429 min
Histogram: 1 2 0 2 4 2 1 1 0 3

Total # of neighbors = 302574
Ave neighs/atom = 302.574
Neighbor list builds = 1000
Dangerous builds not checked
Setting up Verlet run ...
  Unit style    : real
  Current step  : 4000
  Time step     : 1
Per MPI rank memory allocation (min/avg/max) = 4.576 | 4.578 | 4.581 Mbytes
Step Temp E_pair E_mol TotEng Press Volume Lx Ly Lz S/CPU 
    4000    293.71753   -10487.236            0   -9612.5952   -4558.1621    779.67968    9.2039038    9.2039038    9.2039038            0 
    4100    310.69566   -10529.123            0   -9603.9241    2002.3306     779.5611    9.2034372    9.2034372    9.2034372    50.576637 
    4200    310.15049   -10519.848            0   -9596.2727    13360.955    779.68023     9.203906     9.203906     9.203906    44.104809 
    4300    304.72375   -10497.678            0   -9590.2628   -2259.7199    780.22345     9.206043     9.206043     9.206043    52.374146 
    4400    303.09069   -10489.607            0   -9587.0542    12741.751    780.80433    9.2083271    9.2083271    9.2083271    37.040485 
    4500    298.70908   -10472.764            0   -9583.2595    15651.805    781.78216    9.2121695    9.2121695    9.2121695    46.146025 
    4600    307.55132   -10498.045            0   -9582.2092   -1067.9046    783.19732    9.2177246    9.2177246    9.2177246    43.719921 
    4700     306.6733   -10493.961            0   -9580.7404   -593.26719    784.67679    9.2235252    9.2235252    9.2235252    37.946092 
    4800    301.28914   -10475.496            0   -9578.3085   -11920.068    785.94983    9.2285105    9.2285105    9.2285105    57.802117 
    4900    292.68917   -10448.284            0    -9576.706   -12276.663    786.76473    9.2316988    9.2316988    9.2316988    54.020984 
    5000    306.64858    -10487.43            0   -9574.2831    10884.975      787.512    9.2346207    9.2346207    9.2346207    29.861946 
Loop time of 22.8732 on 16 procs for 1000 steps with 1000 atoms

Performance: 3.777 ns/day, 6.354 hours/ns, 43.719 timesteps/s
94.4% CPU use with 16 MPI tasks x no OpenMP threads

MPI task timing breakdown:
Section |  min time  |  avg time  |  max time  |%varavg| %total
---------------------------------------------------------------
Pair    | 1.6844     | 1.7709     | 2.0079     |   6.0 |  7.74
Neigh   | 0.59251    | 0.61837    | 0.70481    |   3.5 |  2.70
Comm    | 0.41424    | 0.73789    | 0.84997    |  12.4 |  3.23
Output  | 12.976     | 13.401     | 19.716     |  44.5 | 58.59
Modify  | 0.022495   | 6.3379     | 6.7634     |  64.8 | 27.71
Other   |            | 0.00701    |            |       |  0.03

Nlocal:    62.5 ave 71 max 54 min
Histogram: 1 0 3 1 4 2 2 1 1 1
Nghost:    1849 ave 1867 max 1824 min
Histogram: 1 0 2 1 3 1 2 2 2 2
Neighs:    0 ave 0 max 0 min
Histogram: 16 0 0 0 0 0 0 0 0 0
FullNghs:  18735.1 ave 21174 max 16224 min
Histogram: 1 0 3 1 4 1 3 1 0 2

Total # of neighbors = 299762
Ave neighs/atom = 299.762
Neighbor list builds = 1000
Dangerous builds not checked
Setting up Verlet run ...
  Unit style    : real
  Current step  : 5000
  Time step     : 1
Per MPI rank memory allocation (min/avg/max) = 4.576 | 4.578 | 4.581 Mbytes
Step Temp E_pair E_mol TotEng Press Volume Lx Ly Lz S/CPU 
    5000    306.64858    -10487.43            0   -9574.2831    10884.975      787.512    9.2346207    9.2346207    9.2346207            0 
    5100    305.01381   -10479.269            0   -9570.9898    1170.5694    788.99833    9.2404268    9.2404268    9.2404268    45.654102 
    5200    300.79797    -10465.37            0   -9569.6455   -13864.157    790.59888    9.2466709    9.2466709    9.2466709    48.902151 
    5300    299.44016   -10457.674            0    -9565.992    19.810995    791.95579    9.2519579    9.2519579    9.2519579    40.281323 
    5400    282.96485   -10403.436            0    -9560.815   -2804.1148    793.16453    9.2566625    9.2566625    9.2566625    60.519771 
    5500    307.53013   -10471.891            0   -9556.1193    519.13169    793.96811    9.2597875    9.2597875    9.2597875    35.219186 
    5600    305.47816   -10457.749            0   -9548.0872   -2158.7126    794.41317    9.2615173    9.2615173    9.2615173    40.531063 
    5700    300.67975    -10435.67            0   -9540.2971   -7669.3713    794.62382    9.2623359    9.2623359    9.2623359    49.408477 
    5800    303.29508   -10435.472            0   -9532.3108   -7856.9556    794.13278    9.2604276    9.2604276    9.2604276    42.043504 
    5900     318.3034   -10472.711            0    -9524.858    2437.9138    793.13633    9.2565528    9.2565528    9.2565528    36.724272 
    6000    311.96156   -10446.936            0   -9517.9681   -8400.8097    791.73013     9.251079     9.251079     9.251079    28.380948 
Loop time of 24.3257 on 16 procs for 1000 steps with 1000 atoms

Performance: 3.552 ns/day, 6.757 hours/ns, 41.109 timesteps/s
94.3% CPU use with 16 MPI tasks x no OpenMP threads

MPI task timing breakdown:
Section |  min time  |  avg time  |  max time  |%varavg| %total
---------------------------------------------------------------
Pair    | 1.6319     | 1.7066     | 1.8993     |   4.6 |  7.02
Neigh   | 0.59425    | 0.60924    | 0.67978    |   2.7 |  2.50
Comm    | 0.34958    | 0.61273    | 0.68397    |   9.9 |  2.52
Output  | 14.268     | 14.716     | 21.367     |  44.8 | 60.50
Modify  | 0.021907   | 6.6744     | 7.1221     |  66.5 | 27.44
Other   |            | 0.0069     |            |       |  0.03

Nlocal:    62.5 ave 68 max 59 min
Histogram: 1 2 4 2 1 3 2 0 0 1
Nghost:    1837.62 ave 1856 max 1818 min
Histogram: 1 3 0 2 2 2 1 1 2 2
Neighs:    0 ave 0 max 0 min
Histogram: 16 0 0 0 0 0 0 0 0 0
FullNghs:  18630.6 ave 20255 max 17524 min
Histogram: 2 2 4 0 2 3 1 1 0 1

Total # of neighbors = 298090
Ave neighs/atom = 298.09
Neighbor list builds = 1000
Dangerous builds not checked
Setting up Verlet run ...
  Unit style    : real
  Current step  : 6000
  Time step     : 1
Per MPI rank memory allocation (min/avg/max) = 4.576 | 4.578 | 4.581 Mbytes
Step Temp E_pair E_mol TotEng Press Volume Lx Ly Lz S/CPU 
    6000    311.96156   -10446.936            0   -9517.9681   -8400.8097    791.73013     9.251079     9.251079     9.251079            0 
    6100    296.34949   -10396.034            0   -9513.5562   -10524.573    790.03153    9.2444585    9.2444585    9.2444585    49.572485 
    6200    314.54823   -10450.986            0   -9514.3155     6444.688    788.12398    9.2370121    9.2370121    9.2370121    42.355441 
    6300    317.47393   -10461.264            0   -9515.8811    6655.6693    786.51153    9.2307084    9.2307084    9.2307084    36.344206 
    6400    311.79101   -10450.739            0    -9522.279   -5237.1693    785.28986    9.2259266    9.2259266    9.2259266     49.38305 
    6500    311.47489   -10460.752            0   -9533.2334    4274.9078    784.11076    9.2213068    9.2213068    9.2213068    40.744928 
    6600    300.22852   -10442.197            0   -9548.1679    4810.8774    782.99765    9.2169413    9.2169413    9.2169413    45.448756 
    6700    305.69715   -10474.802            0   -9564.4881    624.04333    781.92079     9.212714     9.212714     9.212714    46.112231 
    6800    297.08283   -10461.653            0    -9576.991    18848.032     781.0584    9.2093258    9.2093258    9.2093258    39.200537 
    6900    303.45555   -10491.535            0    -9587.896    3486.0301    781.00134    9.2091015    9.2091015    9.2091015    37.247055 
    7000    297.43153   -10481.371            0   -9595.6702    8694.3546    781.38855    9.2106232    9.2106232    9.2106232    43.476224 
Loop time of 23.5138 on 16 procs for 1000 steps with 1000 atoms

Performance: 3.674 ns/day, 6.532 hours/ns, 42.528 timesteps/s
94.3% CPU use with 16 MPI tasks x no OpenMP threads

MPI task timing breakdown:
Section |  min time  |  avg time  |  max time  |%varavg| %total
---------------------------------------------------------------
Pair    | 1.6456     | 1.7418     | 1.9137     |   4.6 |  7.41
Neigh   | 0.59186    | 0.61204    | 0.67545    |   2.6 |  2.60
Comm    | 0.36917    | 0.60456    | 0.71451    |  10.1 |  2.57
Output  | 13.55      | 13.99      | 20.526     |  45.1 | 59.50
Modify  | 0.021658   | 6.5582     | 6.9981     |  65.9 | 27.89
Other   |            | 0.006929   |            |       |  0.03

Nlocal:    62.5 ave 68 max 51 min
Histogram: 1 0 0 1 2 2 1 3 2 4
Nghost:    1856.56 ave 1874 max 1839 min
Histogram: 1 3 1 3 0 2 0 1 2 3
Neighs:    0 ave 0 max 0 min
Histogram: 16 0 0 0 0 0 0 0 0 0
FullNghs:  18885.1 ave 20574 max 15388 min
Histogram: 1 0 0 1 2 2 2 2 1 5

Total # of neighbors = 302162
Ave neighs/atom = 302.162
Neighbor list builds = 1000
Dangerous builds not checked
Setting up Verlet run ...
  Unit style    : real
  Current step  : 7000
  Time step     : 1
Per MPI rank memory allocation (min/avg/max) = 4.576 | 4.578 | 4.581 Mbytes
Step Temp E_pair E_mol TotEng Press Volume Lx Ly Lz S/CPU 
    7000    297.43153   -10481.371            0   -9595.6702    8694.3546    781.38855    9.2106232    9.2106232    9.2106232            0 
    7100    300.27044   -10495.066            0   -9600.9114   -1772.7471    781.95395    9.2128442    9.2128442    9.2128442    45.492339 
    7200    306.03818   -10516.772            0   -9605.4425   -2113.4296    782.07736    9.2133288    9.2133288    9.2133288    46.443318 
    7300    299.66356   -10500.305            0   -9607.9578     -4401.19    782.13728    9.2135641    9.2135641    9.2135641    41.142552 
    7400    312.02361   -10540.473            0   -9611.3201    -9037.466    782.41776    9.2146653    9.2146653    9.2146653    47.369672 
    7500    298.78822   -10502.193            0   -9612.4526    -2470.873    782.61416    9.2154363    9.2154363    9.2154363    43.296933 
    7600    288.92901   -10474.288            0   -9613.9072   -14333.391     782.5297    9.2151047    9.2151047    9.2151047    42.489208 
    7700    304.33848   -10521.876            0   -9615.6084   -5010.5551    781.93301     9.212762     9.212762     9.212762     41.06648 
    7800    301.91093   -10515.467            0   -9616.4276    3398.0377    780.92364    9.2087961    9.2087961    9.2087961    31.379497 
    7900    293.37289   -10489.731            0   -9616.1161    237.64647    779.77714    9.2042873    9.2042873    9.2042873    39.747444 
    8000    296.73748   -10500.743            0    -9617.109     11550.28    778.62149     9.199738     9.199738     9.199738    49.066796 
Loop time of 23.7319 on 16 procs for 1000 steps with 1000 atoms

Performance: 3.641 ns/day, 6.592 hours/ns, 42.137 timesteps/s
94.3% CPU use with 16 MPI tasks x no OpenMP threads

MPI task timing breakdown:
Section |  min time  |  avg time  |  max time  |%varavg| %total
---------------------------------------------------------------
Pair    | 1.6643     | 1.7551     | 1.9784     |   5.5 |  7.40
Neigh   | 0.59023    | 0.61279    | 0.68543    |   2.9 |  2.58
Comm    | 0.31759    | 0.61319    | 0.72631    |  11.9 |  2.58
Output  | 13.498     | 13.953     | 20.721     |  46.8 | 58.80
Modify  | 0.021587   | 6.7904     | 7.2458     |  67.1 | 28.61
Other   |            | 0.006953   |            |       |  0.03

Nlocal:    62.5 ave 67 max 57 min
Histogram: 1 0 2 1 2 1 2 3 2 2
Nghost:    1859.75 ave 1877 max 1843 min
Histogram: 2 1 2 1 3 1 2 1 0 3
Neighs:    0 ave 0 max 0 min
Histogram: 16 0 0 0 0 0 0 0 0 0
FullNghs:  18976.9 ave 20368 max 17193 min
Histogram: 1 0 2 1 3 0 3 3 2 1

Total # of neighbors = 303630
Ave neighs/atom = 303.63
Neighbor list builds = 1000
Dangerous builds not checked
Setting up Verlet run ...
  Unit style    : real
  Current step  : 8000
  Time step     : 1
Per MPI rank memory allocation (min/avg/max) = 4.576 | 4.578 | 4.581 Mbytes
Step Temp E_pair E_mol TotEng Press Volume Lx Ly Lz S/CPU 
    8000    296.73748   -10500.743            0    -9617.109     11550.28    778.62149     9.199738     9.199738     9.199738            0 
    8100    309.79789   -10539.005            0   -9616.4794    7202.7109    778.08245    9.1976146    9.1976146    9.1976146    54.847465 
    8200    304.80474   -10523.527            0   -9615.8707    10144.947    778.19374    9.1980531    9.1980531    9.1980531    37.023067 
    8300    290.53316   -10478.519            0   -9613.3608    3468.1336    778.82914    9.2005558    9.2005558    9.2005558    39.979813 
    8400    290.99039   -10480.095            0   -9613.5752    3305.2772    779.70572    9.2040063    9.2040063    9.2040063    38.914918 
    8500    293.63209   -10486.066            0   -9611.6795    4672.6438    780.69702    9.2079052    9.2079052    9.2079052    43.008912 
    8600    299.51702   -10499.985            0   -9608.0743   -4970.9666    781.76868    9.2121165    9.2121165    9.2121165    49.797368 
    8700    297.38549   -10488.234            0   -9602.6704   -1842.5654    782.91479    9.2166161    9.2166161    9.2166161    37.317289 
    8800    291.97556   -10465.141            0    -9595.688    8079.5707    784.29753    9.2220389    9.2220389    9.2220389    56.824252 
    8900    312.44447   -10518.722            0   -9588.3154    9890.5227    786.12126    9.2291814    9.2291814    9.2291814    33.431138 
    9000    298.85368   -10467.788            0   -9577.8525   -10854.253    788.26703     9.237571     9.237571     9.237571    44.267387 
Loop time of 23.6183 on 16 procs for 1000 steps with 1000 atoms

Performance: 3.658 ns/day, 6.561 hours/ns, 42.340 timesteps/s
94.3% CPU use with 16 MPI tasks x no OpenMP threads

MPI task timing breakdown:
Section |  min time  |  avg time  |  max time  |%varavg| %total
---------------------------------------------------------------
Pair    | 1.6904     | 1.7577     | 1.9956     |   5.1 |  7.44
Neigh   | 0.59163    | 0.61201    | 0.6956     |   3.1 |  2.59
Comm    | 0.3011     | 0.62216    | 0.71173    |  11.5 |  2.63
Output  | 15.156     | 15.5       | 20.597     |  33.4 | 65.63
Modify  | 0.021501   | 5.1195     | 5.4636     |  58.2 | 21.68
Other   |            | 0.006929   |            |       |  0.03

Nlocal:    62.5 ave 72 max 58 min
Histogram: 2 1 8 2 0 2 0 0 0 1
Nghost:    1852.31 ave 1881 max 1823 min
Histogram: 2 0 4 0 1 4 1 0 1 3
Neighs:    0 ave 0 max 0 min
Histogram: 16 0 0 0 0 0 0 0 0 0
FullNghs:  18717.8 ave 21705 max 17082 min
Histogram: 1 2 2 7 2 1 0 0 0 1

Total # of neighbors = 299484
Ave neighs/atom = 299.484
Neighbor list builds = 1000
Dangerous builds not checked
Setting up Verlet run ...
  Unit style    : real
  Current step  : 9000
  Time step     : 1
Per MPI rank memory allocation (min/avg/max) = 4.576 | 4.578 | 4.581 Mbytes
Step Temp E_pair E_mol TotEng Press Volume Lx Ly Lz S/CPU 
    9000    298.85368   -10467.788            0   -9577.8525   -10854.253    788.26703     9.237571     9.237571     9.237571            0 
    9100    311.96206   -10498.317            0   -9569.3471   -5365.2387    790.28464    9.2454456    9.2454456    9.2454456    54.208927 
    9200    298.11004   -10447.526            0   -9559.8051    10342.704    791.84134    9.2515122    9.2515122    9.2515122    35.402183 
    9300    298.77142   -10442.558            0   -9552.8678   -6668.5147    793.56631    9.2582252    9.2582252    9.2582252    56.790208 
    9400    303.59705   -10451.024            0   -9546.9634   -4847.6909    794.89056    9.2633722    9.2633722    9.2633722     49.19014 
    9500    311.31461   -10471.237            0   -9544.1953   -18814.122    795.38704    9.2653004    9.2653004    9.2653004    44.949823 
    9600    303.12782   -10444.178            0    -9541.515   -4527.3034    794.74412    9.2628033    9.2628033    9.2628033    40.509553 
    9700    302.31221   -10440.684            0   -9540.4495   -8176.1746    793.33391    9.2573213    9.2573213    9.2573213    51.220572 
    9800    306.56953   -10454.628            0    -9541.716    860.16848    791.33902    9.2495555    9.2495555    9.2495555    43.188859 
    9900    311.21339   -10469.913            0   -9543.1723   -9843.7956    789.25162    9.2414154    9.2414154    9.2414154    37.826294 
   10000    304.33936   -10454.716            0    -9548.445    5743.3039    787.47734    9.2344852    9.2344852    9.2344852    46.368548 
Loop time of 22.2245 on 16 procs for 1000 steps with 1000 atoms

Performance: 3.888 ns/day, 6.173 hours/ns, 44.995 timesteps/s
94.4% CPU use with 16 MPI tasks x no OpenMP threads

MPI task timing breakdown:
Section |  min time  |  avg time  |  max time  |%varavg| %total
---------------------------------------------------------------
Pair    | 1.6074     | 1.7147     | 2.0344     |   7.1 |  7.72
Neigh   | 0.58477    | 0.61138    | 0.71402    |   3.8 |  2.75
Comm    | 0.3177     | 0.7397     | 0.87221    |  14.1 |  3.33
Output  | 12.424     | 12.847     | 19.128     |  45.3 | 57.80
Modify  | 0.022136   | 6.3052     | 6.7284     |  64.6 | 28.37
Other   |            | 0.006864   |            |       |  0.03

Nlocal:    62.5 ave 69 max 56 min
Histogram: 1 1 2 2 2 2 3 1 0 2
Nghost:    1855.12 ave 1878 max 1839 min
Histogram: 3 1 3 2 2 0 1 1 2 1
Neighs:    0 ave 0 max 0 min
Histogram: 16 0 0 0 0 0 0 0 0 0
FullNghs:  18764.6 ave 20813 max 16687 min
Histogram: 1 1 2 2 0 4 3 1 0 2

Total # of neighbors = 300234
Ave neighs/atom = 300.234
Neighbor list builds = 1000
Dangerous builds not checked
Setting up Verlet run ...
  Unit style    : real
  Current step  : 10000
  Time step     : 1
Per MPI rank memory allocation (min/avg/max) = 4.576 | 4.578 | 4.581 Mbytes
Step Temp E_pair E_mol TotEng Press Volume Lx Ly Lz S/CPU 
   10000    304.33936   -10454.716            0    -9548.445    5743.3039    787.47734    9.2344852    9.2344852    9.2344852            0 
   10100    304.06372   -10463.684            0   -9558.2345   -12648.857    785.91611    9.2283785    9.2283785    9.2283785    51.081428 
   10200    281.17453   -10409.835            0   -9572.5457   -9732.2283    783.45366    9.2187302    9.2187302    9.2187302     45.59398 
   10300    303.31695   -10494.665            0   -9591.4388   -4331.6002    780.18886     9.205907     9.205907     9.205907    37.607665 
   10400     303.3131   -10509.708            0   -9606.4934    7339.2808    776.88335    9.1928873    9.1928873    9.1928873    44.979368 
   10500    308.07008   -10535.893            0   -9618.5132    16898.869    774.04196    9.1816662    9.1816662    9.1816662    39.812695 
   10600     307.6773   -10541.866            0   -9625.6556     9227.447    771.96197    9.1734346    9.1734346    9.1734346    38.755792 
   10700    292.27145   -10500.352            0   -9630.0171    16369.678    771.13717    9.1701663    9.1701663    9.1701663    45.706612 
   10800    294.00094   -10509.157            0   -9633.6719    12750.768     771.6617     9.172245     9.172245     9.172245    46.131289 
   10900    293.09629   -10507.511            0   -9634.7201    209.31209    773.02743     9.177653     9.177653     9.177653    42.432098 
   11000    290.44645   -10500.664            0   -9635.7637    7892.1521    774.80883    9.1846974    9.1846974    9.1846974    37.379061 
Loop time of 23.5128 on 16 procs for 1000 steps with 1000 atoms

Performance: 3.675 ns/day, 6.531 hours/ns, 42.530 timesteps/s
94.3% CPU use with 16 MPI tasks x no OpenMP threads

MPI task timing breakdown:
Section |  min time  |  avg time  |  max time  |%varavg| %total
---------------------------------------------------------------
Pair    | 1.6549     | 1.778      | 1.944      |   4.1 |  7.56
Neigh   | 0.58191    | 0.61389    | 0.67102    |   2.3 |  2.61
Comm    | 0.356      | 0.57902    | 0.73531    |   9.4 |  2.46
Output  | 13.579     | 14.017     | 20.513     |  44.8 | 59.61
Modify  | 0.02139    | 6.5184     | 6.9556     |  65.7 | 27.72
Other   |            | 0.006958   |            |       |  0.03

Nlocal:    62.5 ave 68 max 57 min
Histogram: 1 2 1 1 3 4 0 2 0 2
Nghost:    1866.38 ave 1881 max 1850 min
Histogram: 1 2 0 1 2 2 5 1 1 1
Neighs:    0 ave 0 max 0 min
Histogram: 16 0 0 0 0 0 0 0 0 0
FullNghs:  19032.6 ave 20980 max 17129 min
Histogram: 1 0 2 2 4 3 1 1 0 2

Total # of neighbors = 304522
Ave neighs/atom = 304.522
Neighbor list builds = 1000
Dangerous builds not checked
Setting up Verlet run ...
  Unit style    : real
  Current step  : 11000
  Time step     : 1
Per MPI rank memory allocation (min/avg/max) = 4.576 | 4.578 | 4.581 Mbytes
Step Temp E_pair E_mol TotEng Press Volume Lx Ly Lz S/CPU 
   11000    290.44645   -10500.664            0   -9635.7637    7892.1521    774.80883    9.1846974    9.1846974    9.1846974            0 
   11100    291.52185   -10504.136            0    -9636.034   -13749.511    776.81989     9.192637     9.192637     9.192637    36.577759 
   11200    298.37179   -10522.906            0    -9634.406    6253.3435    778.50442    9.1992769    9.1992769    9.1992769    50.391112 
   11300    286.21678   -10482.862            0   -9630.5576   -14272.423    780.00635     9.205189     9.205189     9.205189    40.980334 
   11400    294.45087   -10503.441            0   -9626.6168    8203.7102    781.18284    9.2098148    9.2098148    9.2098148     42.74252 
   11500    301.17626   -10517.619            0   -9620.7672    3280.4344    782.74558    9.2159521    9.2159521    9.2159521    52.974004 
   11600    296.41841   -10495.269            0   -9612.5858    7053.6359    784.63339    9.2233551    9.2233551    9.2233551      46.2349 
   11700    302.34666    -10505.55            0    -9605.213   -2721.5995    786.34191    9.2300448    9.2300448    9.2300448    48.521485 
   11800    295.08947   -10474.758            0   -9596.0315     3694.823    787.94662    9.2363192    9.2363192    9.2363192    33.414293 
   11900    304.80071   -10496.618            0   -9588.9733   -13526.922    789.65506    9.2429898    9.2429898    9.2429898    40.958851 
   12000     306.0349   -10492.036            0   -9580.7166   -1234.4171    790.67498    9.2469675    9.2469675    9.2469675    53.522177 
Loop time of 22.9123 on 16 procs for 1000 steps with 1000 atoms

Performance: 3.771 ns/day, 6.365 hours/ns, 43.645 timesteps/s
94.4% CPU use with 16 MPI tasks x no OpenMP threads

MPI task timing breakdown:
Section |  min time  |  avg time  |  max time  |%varavg| %total
---------------------------------------------------------------
Pair    | 1.6948     | 1.7486     | 1.959      |   4.5 |  7.63
Neigh   | 0.59421    | 0.6121     | 0.6888     |   2.9 |  2.67
Comm    | 0.32666    | 0.61347    | 0.68511    |  10.4 |  2.68
Output  | 13.173     | 13.598     | 19.908     |  44.2 | 59.35
Modify  | 0.021575   | 6.3336     | 6.7588     |  64.8 | 27.64
Other   |            | 0.006925   |            |       |  0.03

Nlocal:    62.5 ave 68 max 59 min
Histogram: 1 1 4 3 4 1 0 0 1 1
Nghost:    1850.38 ave 1861 max 1840 min
Histogram: 3 1 0 3 0 2 2 1 3 1
Neighs:    0 ave 0 max 0 min
Histogram: 16 0 0 0 0 0 0 0 0 0
FullNghs:  18646.5 ave 20363 max 17407 min
Histogram: 1 2 3 1 5 2 0 0 1 1

Total # of neighbors = 298344
Ave neighs/atom = 298.344
Neighbor list builds = 1000
Dangerous builds not checked
Setting up Verlet run ...
  Unit style    : real
  Current step  : 12000
  Time step     : 1
Per MPI rank memory allocation (min/avg/max) = 4.576 | 4.578 | 4.581 Mbytes
Step Temp E_pair E_mol TotEng Press Volume Lx Ly Lz S/CPU 
   12000     306.0349   -10492.036            0   -9580.7166   -1234.4171    790.67498    9.2469675    9.2469675    9.2469675            0 
   12100     296.7758   -10455.276            0   -9571.5283   -15312.224    790.80068    9.2474575    9.2474575    9.2474575    44.764661 
   12200    305.56456   -10474.004            0   -9564.0854    -14327.89    790.09001    9.2446865    9.2446865    9.2446865    39.577993 
   12300    308.93693   -10477.684            0   -9557.7224   -5460.4899     789.3005    9.2416062    9.2416062    9.2416062    36.827702 
   12400    302.78179   -10454.483            0   -9552.8502    1834.7406    788.91466    9.2401001    9.2401001    9.2401001    50.032121 
   12500    299.35042   -10440.501            0   -9549.0861   -4202.4283    788.96945     9.240314     9.240314     9.240314    46.154018 
   12600     302.2553    -10448.18            0   -9548.1154   -7691.3236    788.91582    9.2401046    9.2401046    9.2401046    36.564872 
   12700    307.51813   -10463.812            0   -9548.0758    9719.6969    788.82904    9.2397658    9.2397658    9.2397658    32.827849 
   12800     308.2679   -10466.393            0   -9548.4235    2020.6828    789.27637    9.2415121    9.2415121    9.2415121    47.966654 
   12900    300.50175   -10443.359            0   -9548.5162   -5003.6429    789.87804    9.2438597    9.2438597    9.2438597     37.01703 
   13000    305.74656    -10461.14            0   -9550.6788   -7966.0302    789.94983    9.2441398    9.2441398    9.2441398    45.129383 
Loop time of 24.4245 on 16 procs for 1000 steps with 1000 atoms

Performance: 3.537 ns/day, 6.785 hours/ns, 40.943 timesteps/s
94.3% CPU use with 16 MPI tasks x no OpenMP threads

MPI task timing breakdown:
Section |  min time  |  avg time  |  max time  |%varavg| %total
---------------------------------------------------------------
Pair    | 1.6224     | 1.7349     | 2.0292     |   6.8 |  7.10
Neigh   | 0.58814    | 0.6148     | 0.71079    |   3.5 |  2.52
Comm    | 0.36465    | 0.75522    | 0.89423    |  13.3 |  3.09
Output  | 14.126     | 14.577     | 21.289     |  45.4 | 59.68
Modify  | 0.022636   | 6.7352     | 7.1868     |  66.8 | 27.58
Other   |            | 0.006966   |            |       |  0.03

Nlocal:    62.5 ave 67 max 58 min
Histogram: 1 0 2 3 4 0 2 2 1 1
Nghost:    1862.06 ave 1883 max 1832 min
Histogram: 1 2 0 0 1 3 3 2 2 2
Neighs:    0 ave 0 max 0 min
Histogram: 16 0 0 0 0 0 0 0 0 0
FullNghs:  18666.8 ave 20174 max 17247 min
Histogram: 1 1 1 3 4 0 2 2 1 1

Total # of neighbors = 298668
Ave neighs/atom = 298.668
Neighbor list builds = 1000
Dangerous builds not checked
Setting up Verlet run ...
  Unit style    : real
  Current step  : 13000
  Time step     : 1
Per MPI rank memory allocation (min/avg/max) = 4.576 | 4.578 | 4.581 Mbytes
Step Temp E_pair E_mol TotEng Press Volume Lx Ly Lz S/CPU 
   13000    305.74656    -10461.14            0   -9550.6788   -7966.0302    789.94983    9.2441398    9.2441398    9.2441398            0 
   13100    302.42148   -10452.643            0   -9552.0834   -3208.1204    789.45189     9.242197     9.242197     9.242197    39.115869 
   13200    304.96687   -10462.575            0   -9554.4353   -5383.8235    788.68654    9.2392094    9.2392094    9.2392094     44.69341 
   13300    324.42182   -10524.079            0   -9558.0058    3048.0755    787.98463    9.2364677    9.2364677    9.2364677    38.493387 
   13400    310.92358    -10486.95            0   -9561.0731   -11116.619    787.17311    9.2332958    9.2332958    9.2332958    53.755436 
   13500    300.00614   -10456.012            0   -9562.6452   -3948.0466     785.8833      9.22825      9.22825      9.22825    53.460473 
   13600    309.19221   -10488.556            0   -9567.8345   -4638.9542    784.13363    9.2213964    9.2213964    9.2213964    47.856891 
   13700    304.93928   -10479.449            0   -9571.3917     12737.92    782.56532    9.2152446    9.2152446    9.2152446    45.543117 
   13800    298.43957   -10463.051            0   -9574.3485    2227.7695    781.31005    9.2103147    9.2103147    9.2103147    58.106475 
   13900    303.37654   -10482.394            0   -9578.9903    17443.741    780.15328     9.205767     9.205767     9.205767    37.209681 
   14000    306.25098   -10493.681            0   -9581.7181    2960.1543    779.47734    9.2031076    9.2031076    9.2031076    46.673398 
Loop time of 21.9589 on 16 procs for 1000 steps with 1000 atoms

Performance: 3.935 ns/day, 6.100 hours/ns, 45.540 timesteps/s
94.4% CPU use with 16 MPI tasks x no OpenMP threads

MPI task timing breakdown:
Section |  min time  |  avg time  |  max time  |%varavg| %total
---------------------------------------------------------------
Pair    | 1.6191     | 1.7441     | 2.0093     |   6.4 |  7.94
Neigh   | 0.58643    | 0.61317    | 0.70828    |   3.5 |  2.79
Comm    | 0.32259    | 0.68296    | 0.8365     |  13.4 |  3.11
Output  | 12.874     | 13.254     | 18.888     |  40.0 | 60.36
Modify  | 0.022189   | 5.6581     | 6.0381     |  61.2 | 25.77
Other   |            | 0.00697    |            |       |  0.03

Nlocal:    62.5 ave 67 max 58 min
Histogram: 1 1 1 5 0 1 3 2 1 1
Nghost:    1863.75 ave 1888 max 1849 min
Histogram: 4 2 1 1 4 1 0 1 0 2
Neighs:    0 ave 0 max 0 min
Histogram: 16 0 0 0 0 0 0 0 0 0
FullNghs:  18926.4 ave 20570 max 17414 min
Histogram: 1 2 1 4 1 0 4 1 1 1

Total # of neighbors = 302822
Ave neighs/atom = 302.822
Neighbor list builds = 1000
Dangerous builds not checked
Setting up Verlet run ...
  Unit style    : real
  Current step  : 14000
  Time step     : 1
Per MPI rank memory allocation (min/avg/max) = 4.576 | 4.578 | 4.581 Mbytes
Step Temp E_pair E_mol TotEng Press Volume Lx Ly Lz S/CPU 
   14000    306.25098   -10493.681            0   -9581.7181    2960.1543    779.47734    9.2031076    9.2031076    9.2031076            0 
   14100    302.00044   -10484.527            0   -9585.2209    12911.775    779.09127    9.2015879    9.2015879    9.2015879    47.977604 
   14200    290.55702   -10452.881            0    -9587.652   -4784.9968     779.1235    9.2017148    9.2017148    9.2017148    35.750417 
   14300    291.75607    -10459.35            0   -9590.5501   -373.39758    779.07164    9.2015106    9.2015106    9.2015106    46.286475 
   14400    288.93702   -10453.006            0   -9592.6009    12082.975    778.94264    9.2010027    9.2010027    9.2010027    32.875156 
   14500    307.65718   -10514.365            0   -9598.2143    11996.147    779.12232    9.2017102    9.2017102    9.2017102    46.246636 
   14600    306.41418   -10516.867            0   -9604.4181    2355.8075    779.72834    9.2040953    9.2040953    9.2040953    49.852233 
   14700    292.68998   -10481.611            0   -9610.0299    6885.9045    780.18642    9.2058974    9.2058974    9.2058974    41.976154 
   14800    303.98897   -10521.774            0   -9616.5471    911.63315    780.64442    9.2076984    9.2076984    9.2076984    50.178063 
   14900    291.94811   -10495.847            0   -9626.4751    1093.2376    781.29428    9.2102528    9.2102528    9.2102528     29.27608 
   15000     286.6578   -10489.881            0   -9636.2635    2926.5977    782.02207    9.2131117    9.2131117    9.2131117    58.094869 
Loop time of 23.7643 on 16 procs for 1000 steps with 1000 atoms

Performance: 3.636 ns/day, 6.601 hours/ns, 42.080 timesteps/s
94.4% CPU use with 16 MPI tasks x no OpenMP threads

MPI task timing breakdown:
Section |  min time  |  avg time  |  max time  |%varavg| %total
---------------------------------------------------------------
Pair    | 1.688      | 1.7646     | 1.9548     |   4.7 |  7.43
Neigh   | 0.59064    | 0.61341    | 0.68286    |   2.8 |  2.58
Comm    | 0.34885    | 0.60851    | 0.7074     |  10.7 |  2.56
Output  | 14.051     | 14.473     | 20.748     |  42.6 | 60.90
Modify  | 0.021799   | 6.2975     | 6.7199     |  64.6 | 26.50
Other   |            | 0.006996   |            |       |  0.03

Nlocal:    62.5 ave 66 max 55 min
Histogram: 1 1 0 0 0 3 2 2 2 5
Nghost:    1857.94 ave 1883 max 1828 min
Histogram: 1 1 1 0 5 1 3 1 2 1
Neighs:    0 ave 0 max 0 min
Histogram: 16 0 0 0 0 0 0 0 0 0
FullNghs:  18886.6 ave 20074 max 16420 min
Histogram: 1 0 1 0 0 3 3 1 5 2

Total # of neighbors = 302186
Ave neighs/atom = 302.186
Neighbor list builds = 1000
Dangerous builds not checked
Setting up Verlet run ...
  Unit style    : real
  Current step  : 15000
  Time step     : 1
Per MPI rank memory allocation (min/avg/max) = 4.576 | 4.578 | 4.581 Mbytes
Step Temp E_pair E_mol TotEng Press Volume Lx Ly Lz S/CPU 
   15000     286.6578   -10489.881            0   -9636.2635    2926.5977    782.02207    9.2131117    9.2131117    9.2131117            0 
   15100    287.00757   -10501.962            0   -9647.3029   -372.55217    782.88515    9.2164998    9.2164998    9.2164998    37.425645 
   15200    288.63033   -10519.105            0   -9659.6131    2138.3647    783.84737    9.2202742    9.2202742    9.2202742    37.135323 
   15300    301.59346   -10569.827            0   -9671.7336   -3681.1935    784.65876    9.2234545    9.2234545    9.2234545    33.326874 
   15400    284.97007   -10529.615            0   -9681.0227   -16556.574    784.69318    9.2235894    9.2235894    9.2235894    44.127048 
   15500    281.12946   -10526.948            0   -9689.7923   -7074.9341    783.65916    9.2195362    9.2195362    9.2195362    53.690607 
   15600    283.16237    -10539.17            0   -9695.9612    2425.9193    781.83077    9.2123604    9.2123604    9.2123604    40.869287 
   15700    285.93134    -10549.32            0   -9697.8654    12552.611    779.83657    9.2045211    9.2045211    9.2045211    31.432512 
   15800    281.80176   -10533.675            0   -9694.5173    18970.605    778.22501    9.1981763    9.1981763    9.1981763     38.30342 
   15900    290.35014   -10555.932            0   -9691.3192    1818.5817    777.36048    9.1947689    9.1947689    9.1947689    49.195456 
   16000    290.73079   -10552.097            0   -9686.3501    15182.129    777.01007    9.1933871    9.1933871    9.1933871    37.500622 
Loop time of 25.4324 on 16 procs for 1000 steps with 1000 atoms

Performance: 3.397 ns/day, 7.065 hours/ns, 39.320 timesteps/s
94.3% CPU use with 16 MPI tasks x no OpenMP threads

MPI task timing breakdown:
Section |  min time  |  avg time  |  max time  |%varavg| %total
---------------------------------------------------------------
Pair    | 1.6743     | 1.7507     | 1.9734     |   5.6 |  6.88
Neigh   | 0.58685    | 0.6126     | 0.69121    |   3.0 |  2.41
Comm    | 0.33262    | 0.63361    | 0.72722    |  11.9 |  2.49
Output  | 15.771     | 16.189     | 22.406     |  39.9 | 63.66
Modify  | 0.021579   | 6.2391     | 6.6575     |  64.3 | 24.53
Other   |            | 0.006974   |            |       |  0.03

Nlocal:    62.5 ave 67 max 56 min
Histogram: 1 1 1 0 2 1 5 0 3 2
Nghost:    1873.19 ave 1901 max 1844 min
Histogram: 1 1 3 1 1 3 1 0 4 1
Neighs:    0 ave 0 max 0 min
Histogram: 16 0 0 0 0 0 0 0 0 0
FullNghs:  19000.8 ave 20413 max 16918 min
Histogram: 1 0 1 1 1 3 4 1 2 2

Total # of neighbors = 304012
Ave neighs/atom = 304.012
Neighbor list builds = 1000
Dangerous builds not checked
Setting up Verlet run ...
  Unit style    : real
  Current step  : 16000
  Time step     : 1
Per MPI rank memory allocation (min/avg/max) = 4.576 | 4.578 | 4.581 Mbytes
Step Temp E_pair E_mol TotEng Press Volume Lx Ly Lz S/CPU 
   16000    290.73079   -10552.097            0   -9686.3501    15182.129    777.01007    9.1933871    9.1933871    9.1933871            0 
   16100    289.53836   -10541.364            0   -9679.1681    11420.093    777.43482     9.195062     9.195062     9.195062    34.941894 
   16200    281.16276   -10510.002            0   -9672.7471    14723.231    778.37841    9.1987806    9.1987806    9.1987806    41.208791 
   16300     288.7876   -10528.637            0   -9668.6766    18663.451    779.71097    9.2040269    9.2040269    9.2040269    54.053013 
   16400    290.14937   -10529.169            0   -9665.1538    -379.5114     781.4046    9.2106862    9.2106862    9.2106862    52.750658 
   16500    283.40564   -10504.419            0   -9660.4854   -1185.2539    783.49912    9.2189085    9.2189085    9.2189085    27.670104 
   16600    293.36132   -10530.648            0   -9657.0681   -18001.078    785.92409    9.2284097    9.2284097    9.2284097    49.762855 
   16700    291.99137   -10520.668            0   -9651.1676   -6450.5908    787.65985    9.2351985    9.2351985    9.2351985    52.968129 
   16800     291.7028    -10513.74            0   -9645.0992   -20716.133    788.28411    9.2376377    9.2376377    9.2376377    33.546135 
   16900    285.93562    -10489.35            0   -9637.8824   -15403.071    787.63452    9.2350995    9.2350995    9.2350995    54.661433 
   17000    304.42037   -10535.744            0   -9629.2324    2088.6748    786.29038    9.2298431    9.2298431    9.2298431     36.46418 
Loop time of 24.0986 on 16 procs for 1000 steps with 1000 atoms

Performance: 3.585 ns/day, 6.694 hours/ns, 41.496 timesteps/s
94.3% CPU use with 16 MPI tasks x no OpenMP threads

MPI task timing breakdown:
Section |  min time  |  avg time  |  max time  |%varavg| %total
---------------------------------------------------------------
Pair    | 1.6746     | 1.7478     | 1.9985     |   5.5 |  7.25
Neigh   | 0.59554    | 0.61207    | 0.69662    |   3.0 |  2.54
Comm    | 0.34669    | 0.68163    | 0.77035    |  11.3 |  2.83
Output  | 13.725     | 14.185     | 21.027     |  46.9 | 58.86
Modify  | 0.022017   | 6.8654     | 7.3258     |  67.4 | 28.49
Other   |            | 0.006975   |            |       |  0.03

Nlocal:    62.5 ave 68 max 56 min
Histogram: 2 2 0 0 2 3 0 4 1 2
Nghost:    1852.5 ave 1874 max 1834 min
Histogram: 1 1 0 5 2 2 2 1 1 1
Neighs:    0 ave 0 max 0 min
Histogram: 16 0 0 0 0 0 0 0 0 0
FullNghs:  18787.5 ave 20527 max 16800 min
Histogram: 2 2 0 1 1 3 0 4 1 2

Total # of neighbors = 300600
Ave neighs/atom = 300.6
Neighbor list builds = 1000
Dangerous builds not checked
Setting up Verlet run ...
  Unit style    : real
  Current step  : 17000
  Time step     : 1
Per MPI rank memory allocation (min/avg/max) = 4.576 | 4.578 | 4.581 Mbytes
Step Temp E_pair E_mol TotEng Press Volume Lx Ly Lz S/CPU 
   17000    304.42037   -10535.744            0   -9629.2324    2088.6748    786.29038    9.2298431    9.2298431    9.2298431            0 
   17100    292.63316   -10491.191            0   -9619.7799    8653.1167    785.21795     9.225645     9.225645     9.225645    39.469842 
   17200    303.77251   -10517.198            0   -9612.6154   -2352.2389    784.75807    9.2238436    9.2238436    9.2238436    38.233985 
   17300     307.0233   -10518.709            0   -9604.4463    9672.0699    784.35471     9.222263     9.222263     9.222263    43.678058 
   17400    304.04546   -10504.264            0   -9598.8683   -5035.2539    784.15706    9.2214883    9.2214883    9.2214883    42.758546 
   17500    308.35773    -10511.35            0   -9593.1132   -5966.2864    784.13618    9.2214065    9.2214065    9.2214065     41.43722 
   17600    299.78608    -10480.61            0   -9587.8985   -11567.406    783.97437    9.2207721    9.2207721    9.2207721    40.482354 
   17700    304.44891   -10491.961            0   -9585.3645    5570.5369    783.68936    9.2196546    9.2196546    9.2196546    46.049229 
   17800    304.42145   -10489.695            0   -9583.1796    8951.5912    783.77692    9.2199979    9.2199979    9.2199979    38.038911 
   17900    310.62394   -10508.171            0   -9583.1856     5161.325    784.21306    9.2217078    9.2217078    9.2217078    41.576495 
   18000    299.93922   -10474.637            0   -9581.4693    3296.6374    785.01227    9.2248394    9.2248394    9.2248394    30.321287 
Loop time of 25.1645 on 16 procs for 1000 steps with 1000 atoms

Performance: 3.433 ns/day, 6.990 hours/ns, 39.739 timesteps/s
94.3% CPU use with 16 MPI tasks x no OpenMP threads

MPI task timing breakdown:
Section |  min time  |  avg time  |  max time  |%varavg| %total
---------------------------------------------------------------
Pair    | 1.6479     | 1.7433     | 1.9826     |   5.7 |  6.93
Neigh   | 0.58882    | 0.61196    | 0.69409    |   3.0 |  2.43
Comm    | 0.34053    | 0.66162    | 0.77912    |  11.9 |  2.63
Output  | 14.265     | 14.76      | 22.118     |  49.4 | 58.65
Modify  | 0.021727   | 7.3807     | 7.8759     |  69.9 | 29.33
Other   |            | 0.007051   |            |       |  0.03

Nlocal:    62.5 ave 69 max 56 min
Histogram: 1 1 0 3 5 0 4 0 1 1
Nghost:    1845.12 ave 1878 max 1823 min
Histogram: 2 0 6 2 1 0 2 2 0 1
Neighs:    0 ave 0 max 0 min
Histogram: 16 0 0 0 0 0 0 0 0 0
FullNghs:  18788.6 ave 20747 max 16570 min
Histogram: 1 0 1 1 6 1 2 2 1 1

Total # of neighbors = 300618
Ave neighs/atom = 300.618
Neighbor list builds = 1000
Dangerous builds not checked
Setting up Verlet run ...
  Unit style    : real
  Current step  : 18000
  Time step     : 1
Per MPI rank memory allocation (min/avg/max) = 4.576 | 4.578 | 4.581 Mbytes
Step Temp E_pair E_mol TotEng Press Volume Lx Ly Lz S/CPU 
   18000    299.93922   -10474.637            0   -9581.4693    3296.6374    785.01227    9.2248394    9.2248394    9.2248394            0 
   18100    299.68485   -10474.468            0    -9582.058    10133.128    786.21392     9.229544     9.229544     9.229544    46.065962 
   18200    295.06714   -10463.315            0   -9584.6559   -5095.5139    788.05275    9.2367338    9.2367338    9.2367338    53.811808 
   18300    303.44587   -10489.782            0   -9586.1716   -18327.233    789.74029    9.2433223    9.2433223    9.2433223    37.018592 
   18400    298.41487   -10477.228            0   -9588.5999   -8581.7747    790.64451    9.2468487    9.2468487    9.2468487    48.687896 
   18500    302.10622   -10491.279            0   -9591.6585   -13846.256    790.98537    9.2481774    9.2481774    9.2481774    40.324399 
   18600    308.97487   -10518.356            0   -9598.2813   -9615.2487    790.63772    9.2468223    9.2468223    9.2468223    36.500627 
   18700    293.47367   -10480.396            0   -9606.4819   -15350.757    789.72885    9.2432777    9.2432777    9.2432777    34.468679 
   18800    316.50999     -10560.2            0   -9617.6871   -10633.974    787.95446    9.2363498    9.2363498    9.2363498    51.678508 
   18900    291.57814   -10496.354            0   -9628.0843    3783.5553    785.61062    9.2271826    9.2271826    9.2271826    38.431255 
   19000    298.57968   -10529.684            0   -9640.5643    5770.6642     783.1564    9.2175641    9.2175641    9.2175641    34.776435 
Loop time of 24.3178 on 16 procs for 1000 steps with 1000 atoms

Performance: 3.553 ns/day, 6.755 hours/ns, 41.122 timesteps/s
94.3% CPU use with 16 MPI tasks x no OpenMP threads

MPI task timing breakdown:
Section |  min time  |  avg time  |  max time  |%varavg| %total
---------------------------------------------------------------
Pair    | 1.638      | 1.7343     | 1.9606     |   5.7 |  7.13
Neigh   | 0.58227    | 0.61409    | 0.68868    |   3.0 |  2.53
Comm    | 0.37963    | 0.68087    | 0.80194    |  11.6 |  2.80
Output  | 14.289     | 14.729     | 21.259     |  43.9 | 60.57
Modify  | 0.022072   | 6.5528     | 6.9924     |  65.9 | 26.95
Other   |            | 0.00701    |            |       |  0.03

Nlocal:    62.5 ave 65 max 55 min
Histogram: 1 0 0 0 0 2 1 0 5 7
Nghost:    1863.06 ave 1873 max 1857 min
Histogram: 1 4 1 4 1 3 0 1 0 1
Neighs:    0 ave 0 max 0 min
Histogram: 16 0 0 0 0 0 0 0 0 0
FullNghs:  18814.9 ave 19521 max 16324 min
Histogram: 1 0 0 0 0 2 1 1 5 6

Total # of neighbors = 301038
Ave neighs/atom = 301.038
Neighbor list builds = 1000
Dangerous builds not checked
Setting up Verlet run ...
  Unit style    : real
  Current step  : 19000
  Time step     : 1
Per MPI rank memory allocation (min/avg/max) = 4.576 | 4.578 | 4.581 Mbytes
Step Temp E_pair E_mol TotEng Press Volume Lx Ly Lz S/CPU 
   19000    298.57968   -10529.684            0   -9640.5643    5770.6642     783.1564    9.2175641    9.2175641    9.2175641            0 
   19100    298.96195   -10541.374            0   -9651.1168   -6894.2903    780.88294    9.2086361    9.2086361    9.2086361    42.777853 
   19200    297.24451   -10544.788            0   -9659.6445    3905.0651    778.79929    9.2004383    9.2004383    9.2004383     36.13615 
   19300    288.28643   -10525.861            0   -9667.3933    -338.6367    776.90322    9.1929657    9.1929657    9.1929657    54.318534 
   19400    309.77704   -10597.654            0   -9675.1906    13940.755    775.04739      9.18564      9.18564      9.18564     47.59822 
   19500    278.21813   -10506.263            0   -9677.7767    1197.2712    773.30488    9.1787509    9.1787509    9.1787509    33.607219 
   19600    294.60159   -10557.636            0   -9680.3631     7971.811    771.58745    9.1719508    9.1719508    9.1719508    58.249294 
   19700    288.90011    -10541.88            0   -9681.5851    12387.489    770.35754    9.1670749    9.1670749    9.1670749    32.960289 
   19800    303.37593   -10583.911            0   -9680.5092    25863.096     770.2571    9.1666765    9.1666765    9.1666765    38.153247 
   19900    286.91713    -10530.88            0   -9676.4897    7744.8627    771.84017    9.1729521    9.1729521    9.1729521    38.179121 
   20000    289.68522   -10536.492            0   -9673.8584     7582.835    774.31496    9.1827455    9.1827455    9.1827455     47.37568 
Loop time of 24.1242 on 16 procs for 1000 steps with 1000 atoms

Performance: 3.581 ns/day, 6.701 hours/ns, 41.452 timesteps/s
94.4% CPU use with 16 MPI tasks x no OpenMP threads

MPI task timing breakdown:
Section |  min time  |  avg time  |  max time  |%varavg| %total
---------------------------------------------------------------
Pair    | 1.6819     | 1.8129     | 2.1276     |   7.7 |  7.52
Neigh   | 0.5932     | 0.62383    | 0.7428     |   4.6 |  2.59
Comm    | 0.33986    | 0.77339    | 0.93368    |  15.6 |  3.21
Output  | 14.708     | 15.098     | 20.883     |  38.4 | 62.58
Modify  | 0.022296   | 5.809      | 6.1989     |  62.0 | 24.08
Other   |            | 0.00703    |            |       |  0.03

Nlocal:    62.5 ave 68 max 58 min
Histogram: 1 2 2 2 3 1 0 1 1 3
Nghost:    1872.44 ave 1900 max 1843 min
Histogram: 1 0 2 1 7 0 0 2 1 2
Neighs:    0 ave 0 max 0 min
Histogram: 16 0 0 0 0 0 0 0 0 0
FullNghs:  19047.2 ave 20943 max 17584 min
Histogram: 3 0 2 4 2 0 1 2 1 1

Total # of neighbors = 304756
Ave neighs/atom = 304.756
Neighbor list builds = 1000
Dangerous builds not checked
Setting up Verlet run ...
  Unit style    : real
  Current step  : 20000
  Time step     : 1
Per MPI rank memory allocation (min/avg/max) = 4.576 | 4.578 | 4.581 Mbytes
Step Temp E_pair E_mol TotEng Press Volume Lx Ly Lz S/CPU 
   20000    289.68522   -10536.492            0   -9673.8584     7582.835    774.31496    9.1827455    9.1827455    9.1827455            0 
   20100    296.53545    -10552.03            0   -9668.9982    9489.5173    777.47522    9.1952213    9.1952213    9.1952213     54.16324 
   20200    291.27656   -10528.546            0   -9661.1746    4658.7107    781.10698    9.2095167    9.2095167    9.2095167    43.291207 
   20300    295.39488   -10531.221            0   -9651.5859    1488.3652    784.87831    9.2243146    9.2243146    9.2243146    44.929126 
   20400    297.51532   -10526.682            0   -9640.7324   -5867.4343    788.34229    9.2378649    9.2378649    9.2378649     33.73748 
   20500    288.84854   -10491.526            0   -9631.3842   -1730.8831    791.28971    9.2493633    9.2493633    9.2493633    33.303545 
   20600    291.46078   -10491.125            0   -9623.2047   -17501.498    793.84196     9.259297     9.259297     9.259297    42.641252 
   20700    305.35191   -10525.316            0   -9616.0297   -31322.063    795.38347    9.2652865    9.2652865    9.2652865    40.029099 
   20800    294.91444   -10489.208            0   -9611.0032   -25678.072     795.4095    9.2653876    9.2653876    9.2653876    48.856788 
   20900    288.74865   -10465.721            0   -9605.8773   -20407.005    793.83673    9.2592767    9.2592767    9.2592767    38.364432 
   21000    295.00533    -10481.81            0   -9603.3347   -17933.525    790.91204    9.2478916    9.2478916    9.2478916    32.234675 
Loop time of 24.9477 on 16 procs for 1000 steps with 1000 atoms

Performance: 3.463 ns/day, 6.930 hours/ns, 40.084 timesteps/s
94.3% CPU use with 16 MPI tasks x no OpenMP threads

MPI task timing breakdown:
Section |  min time  |  avg time  |  max time  |%varavg| %total
---------------------------------------------------------------
Pair    | 1.6639     | 1.7229     | 1.8942     |   4.2 |  6.91
Neigh   | 0.59208    | 0.61088    | 0.68289    |   2.9 |  2.45
Comm    | 0.39675    | 0.64005    | 0.71644    |   9.5 |  2.57
Output  | 14.932     | 15.374     | 21.944     |  43.3 | 61.62
Modify  | 0.022043   | 6.5931     | 7.0353     |  66.1 | 26.43
Other   |            | 0.006961   |            |       |  0.03

Nlocal:    62.5 ave 66 max 58 min
Histogram: 2 1 1 1 0 2 2 3 2 2
Nghost:    1851.25 ave 1863 max 1835 min
Histogram: 2 1 0 2 1 0 3 3 1 3
Neighs:    0 ave 0 max 0 min
Histogram: 16 0 0 0 0 0 0 0 0 0
FullNghs:  18666 ave 19661 max 17338 min
Histogram: 3 0 1 1 1 1 2 1 3 3

Total # of neighbors = 298656
Ave neighs/atom = 298.656
Neighbor list builds = 1000
Dangerous builds not checked
Setting up Verlet run ...
  Unit style    : real
  Current step  : 21000
  Time step     : 1
Per MPI rank memory allocation (min/avg/max) = 4.576 | 4.578 | 4.581 Mbytes
Step Temp E_pair E_mol TotEng Press Volume Lx Ly Lz S/CPU 
   21000    295.00533    -10481.81            0   -9603.3347   -17933.525    790.91204    9.2478916    9.2478916    9.2478916            0 
   21100    304.90869   -10508.246            0   -9600.2799   -17894.827    786.85851    9.2320656    9.2320656    9.2320656    49.261015 
   21200    298.48647   -10486.427            0   -9597.5856   -7381.8745    782.15143    9.2136197    9.2136197    9.2136197    55.834705 
   21300    302.00099   -10493.794            0    -9594.487    7352.5025    777.45037    9.1951233    9.1951233    9.1951233    54.412294 
   21400    313.40841   -10525.642            0   -9592.3652    16367.641    773.41321    9.1791795    9.1791795    9.1791795     43.20586 
   21500    301.00984   -10486.595            0   -9590.2392     20856.25    770.71778    9.1685036    9.1685036    9.1685036     37.57044 
   21600    296.82672   -10473.835            0   -9589.9354    26404.154      769.947    9.1654462    9.1654462    9.1654462      57.5572 
   21700    306.37554   -10505.728            0   -9593.3944    22309.909    770.88123    9.1691517    9.1691517    9.1691517    39.183095 
   21800    307.76875   -10514.182            0   -9597.6989    13542.451    773.47321    9.1794169    9.1794169    9.1794169    58.965516 
   21900    300.29758   -10497.872            0   -9603.6375    13568.081    777.53297     9.195449     9.195449     9.195449    33.509869 
   22000    295.65383   -10491.018            0   -9610.6117    -7065.945    782.24905     9.214003     9.214003     9.214003    39.352702 
Loop time of 22.1458 on 16 procs for 1000 steps with 1000 atoms

Performance: 3.901 ns/day, 6.152 hours/ns, 45.155 timesteps/s
94.4% CPU use with 16 MPI tasks x no OpenMP threads

MPI task timing breakdown:
Section |  min time  |  avg time  |  max time  |%varavg| %total
---------------------------------------------------------------
Pair    | 1.6641     | 1.7759     | 2.0052     |   5.6 |  8.02
Neigh   | 0.59059    | 0.61254    | 0.67836    |   2.6 |  2.77
Comm    | 0.31504    | 0.60959    | 0.74393    |  11.9 |  2.75
Output  | 12.854     | 13.249     | 19.118     |  41.6 | 59.83
Modify  | 0.021211   | 5.8915     | 6.2871     |  62.4 | 26.60
Other   |            | 0.006958   |            |       |  0.03

Nlocal:    62.5 ave 68 max 58 min
Histogram: 1 3 2 1 0 2 3 1 1 2
Nghost:    1857.5 ave 1892 max 1827 min
Histogram: 2 1 1 4 2 0 2 2 1 1
Neighs:    0 ave 0 max 0 min
Histogram: 16 0 0 0 0 0 0 0 0 0
FullNghs:  18853.1 ave 20481 max 17381 min
Histogram: 1 3 3 0 0 4 1 1 1 2

Total # of neighbors = 301650
Ave neighs/atom = 301.65
Neighbor list builds = 1000
Dangerous builds not checked
Setting up Verlet run ...
  Unit style    : real
  Current step  : 22000
  Time step     : 1
Per MPI rank memory allocation (min/avg/max) = 4.576 | 4.578 | 4.581 Mbytes
Step Temp E_pair E_mol TotEng Press Volume Lx Ly Lz S/CPU 
   22000    295.65383   -10491.018            0   -9610.6117    -7065.945    782.24905     9.214003     9.214003     9.214003            0 
   22100    292.59179   -10488.237            0   -9616.9487   -8668.7603    786.52592    9.2307647    9.2307647    9.2307647    25.084817 
   22200    302.94381   -10526.491            0   -9624.3766   -4752.2042    789.78676    9.2435036    9.2435036    9.2435036    47.120077 
   22300    305.20778   -10539.968            0   -9631.1115   -6055.3436    791.87716    9.2516516    9.2516516    9.2516516    32.162088 
   22400    295.92478   -10518.281            0   -9637.0676   -27329.569     792.6183     9.254537     9.254537     9.254537     41.12472 
   22500    303.99235   -10550.683            0    -9645.446   -22411.041    791.74439    9.2511346    9.2511346    9.2511346    49.695552 
   22600    298.01707    -10539.91            0   -9652.4664   -21570.057    789.70342    9.2431785    9.2431785    9.2431785    53.573505 
   22700    295.85534   -10539.424            0   -9658.4172    -1448.325    786.68314    9.2313797    9.2313797    9.2313797    42.095768 
   22800    283.97227   -10509.729            0   -9664.1085    8149.6523    783.66371     9.219554     9.219554     9.219554    39.170035 
   22900     300.9396   -10567.138            0   -9670.9914    7825.3867    780.86907    9.2085816    9.2085816    9.2085816    54.662962 
   23000    290.10687   -10540.721            0   -9676.8321    13700.808    778.63929    9.1998081    9.1998081    9.1998081    53.387546 
Loop time of 24.1595 on 16 procs for 1000 steps with 1000 atoms

Performance: 3.576 ns/day, 6.711 hours/ns, 41.392 timesteps/s
94.3% CPU use with 16 MPI tasks x no OpenMP threads

MPI task timing breakdown:
Section |  min time  |  avg time  |  max time  |%varavg| %total
---------------------------------------------------------------
Pair    | 1.6479     | 1.7222     | 1.879      |   4.1 |  7.13
Neigh   | 0.58842    | 0.60901    | 0.67018    |   2.4 |  2.52
Comm    | 0.32386    | 0.5417     | 0.63774    |   9.4 |  2.24
Output  | 14.078     | 14.53      | 21.257     |  45.6 | 60.14
Modify  | 0.021379   | 6.7493     | 7.2021     |  66.9 | 27.94
Other   |            | 0.006903   |            |       |  0.03

Nlocal:    62.5 ave 68 max 57 min
Histogram: 4 2 0 1 0 0 3 2 1 3
Nghost:    1856.81 ave 1872 max 1841 min
Histogram: 3 1 1 0 1 4 2 1 1 2
Neighs:    0 ave 0 max 0 min
Histogram: 16 0 0 0 0 0 0 0 0 0
FullNghs:  18958 ave 20542 max 17232 min
Histogram: 2 4 0 0 1 0 3 2 1 3

Total # of neighbors = 303328
Ave neighs/atom = 303.328
Neighbor list builds = 1000
Dangerous builds not checked
Setting up Verlet run ...
  Unit style    : real
  Current step  : 23000
  Time step     : 1
Per MPI rank memory allocation (min/avg/max) = 4.576 | 4.578 | 4.581 Mbytes
Step Temp E_pair E_mol TotEng Press Volume Lx Ly Lz S/CPU 
   23000    290.10687   -10540.721            0   -9676.8321    13700.808    778.63929    9.1998081    9.1998081    9.1998081            0 
   23100    288.32677   -10542.914            0   -9684.3257   -544.32069    776.97377     9.193244     9.193244     9.193244    48.132601 
   23200    296.09587   -10575.158            0   -9693.4348    5486.0613    775.38133     9.186959     9.186959     9.186959    44.051418 
   23300    287.17891   -10555.704            0   -9700.5343    6878.0727    774.02903    9.1816151    9.1816151    9.1816151    40.178243 
   23400    282.70352   -10551.238            0   -9709.3951    8010.8515    773.00232    9.1775537    9.1775537    9.1775537    43.654103 
   23500    288.87629   -10577.554            0   -9717.3294    25521.023    772.47062     9.175449     9.175449     9.175449    53.982307 
   23600    283.60911   -10569.342            0   -9724.8028     385.6058    772.42604    9.1752724    9.1752724    9.1752724     38.30466 
   23700    284.20764   -10576.806            0   -9730.4841   -3153.5908    772.24614    9.1745601    9.1745601    9.1745601    56.503917 
   23800    288.22592   -10593.522            0   -9735.2349   -687.10822      772.132     9.174108     9.174108     9.174108    55.572015 
   23900    282.29932   -10577.952            0   -9737.3131     2123.058    771.97418     9.173483     9.173483     9.173483     47.31432 
   24000    288.72453   -10596.258            0    -9736.486   -11804.283     771.7594    9.1726321    9.1726321    9.1726321    36.538416 
Loop time of 22.0101 on 16 procs for 1000 steps with 1000 atoms

Performance: 3.925 ns/day, 6.114 hours/ns, 45.434 timesteps/s
94.4% CPU use with 16 MPI tasks x no OpenMP threads

MPI task timing breakdown:
Section |  min time  |  avg time  |  max time  |%varavg| %total
---------------------------------------------------------------
Pair    | 1.6966     | 1.8025     | 2.0649     |   6.3 |  8.19
Neigh   | 0.59272    | 0.61834    | 0.7131     |   3.6 |  2.81
Comm    | 0.35789    | 0.71471    | 0.84329    |  13.1 |  3.25
Output  | 11.891     | 12.329     | 18.844     |  47.9 | 56.02
Modify  | 0.021895   | 6.5382     | 6.9769     |  65.8 | 29.71
Other   |            | 0.00703    |            |       |  0.03

Nlocal:    62.5 ave 68 max 57 min
Histogram: 1 1 2 3 2 1 1 3 0 2
Nghost:    1885.56 ave 1900 max 1876 min
Histogram: 3 1 2 2 3 2 1 0 1 1
Neighs:    0 ave 0 max 0 min
Histogram: 16 0 0 0 0 0 0 0 0 0
FullNghs:  19122.8 ave 20829 max 17438 min
Histogram: 1 1 2 3 2 1 1 3 1 1

Total # of neighbors = 305964
Ave neighs/atom = 305.964
Neighbor list builds = 1000
Dangerous builds not checked
Setting up Verlet run ...
  Unit style    : real
  Current step  : 24000
  Time step     : 1
Per MPI rank memory allocation (min/avg/max) = 4.576 | 4.578 | 4.581 Mbytes
Step Temp E_pair E_mol TotEng Press Volume Lx Ly Lz S/CPU 
   24000    288.72453   -10596.258            0    -9736.486   -11804.283     771.7594    9.1726321    9.1726321    9.1726321            0 
   24100    283.34393   -10575.481            0   -9731.7312    13512.214    771.52923    9.1717202    9.1717202    9.1717202    35.975963 
   24200     283.6998   -10565.216            0    -9720.406    1912.2344    771.67847    9.1723115    9.1723115    9.1723115    49.017966 
   24300    294.16884   -10581.864            0    -9705.879    4085.8994    772.36206    9.1750191    9.1750191    9.1750191    45.321182 
   24400    287.33495   -10544.577            0   -9688.9424    10307.887    773.76284    9.1805625    9.1805625    9.1805625    38.450375 
   24500    281.82571   -10514.325            0   -9675.0966    7769.2543    775.86105    9.1888533    9.1888533    9.1888533    44.640548 
   24600     292.9842     -10537.3            0   -9664.8428    5584.5599    778.33451    9.1986077    9.1986077    9.1986077     49.68452 
   24700    288.29217   -10513.391            0   -9654.9062   -5739.0181    780.97465    9.2089966    9.2089966    9.2089966    26.620774 
   24800    298.36348    -10535.13            0   -9646.6542   -1742.6834    783.51547    9.2189726    9.2189726    9.2189726    54.351126 
   24900    299.05099   -10530.186            0   -9639.6629   -9298.0484    785.96548    9.2285717    9.2285717    9.2285717    39.800378 
   25000    291.78228   -10500.556            0   -9631.6785   -12206.192     787.8535    9.2359553    9.2359553    9.2359553    56.182929 
Loop time of 23.7686 on 16 procs for 1000 steps with 1000 atoms

Performance: 3.635 ns/day, 6.602 hours/ns, 42.072 timesteps/s
94.3% CPU use with 16 MPI tasks x no OpenMP threads

MPI task timing breakdown:
Section |  min time  |  avg time  |  max time  |%varavg| %total
---------------------------------------------------------------
Pair    | 1.7105     | 1.7718     | 1.9339     |   4.1 |  7.45
Neigh   | 0.59065    | 0.61369    | 0.68204    |   2.7 |  2.58
Comm    | 0.34846    | 0.57857    | 0.66052    |   9.8 |  2.43
Output  | 14.036     | 14.46      | 20.775     |  42.9 | 60.84
Modify  | 0.021333   | 6.3372     | 6.7622     |  64.8 | 26.66
Other   |            | 0.00695    |            |       |  0.03

Nlocal:    62.5 ave 71 max 59 min
Histogram: 4 3 1 3 3 1 0 0 0 1
Nghost:    1848.56 ave 1875 max 1823 min
Histogram: 1 0 0 5 3 4 0 2 0 1
Neighs:    0 ave 0 max 0 min
Histogram: 16 0 0 0 0 0 0 0 0 0
FullNghs:  18727.5 ave 21414 max 17610 min
Histogram: 3 4 2 2 3 1 0 0 0 1

Total # of neighbors = 299640
Ave neighs/atom = 299.64
Neighbor list builds = 1000
Dangerous builds not checked
Setting up Verlet run ...
  Unit style    : real
  Current step  : 25000
  Time step     : 1
Per MPI rank memory allocation (min/avg/max) = 4.576 | 4.578 | 4.581 Mbytes
Step Temp E_pair E_mol TotEng Press Volume Lx Ly Lz S/CPU 
   25000    291.78228   -10500.556            0   -9631.6785   -12206.192     787.8535    9.2359553    9.2359553    9.2359553            0 
   25100    298.44536   -10514.047            0   -9625.3279   -13115.948    789.16009    9.2410582    9.2410582    9.2410582    36.254424 
   25200    301.22056   -10514.702            0   -9617.7185   -4325.9419    789.64374    9.2429456    9.2429456    9.2429456    42.509692 
   25300    294.60794   -10487.297            0   -9610.0044   -13813.221    789.47229    9.2422767    9.2422767    9.2422767    45.552118 
   25400     285.9695   -10454.769            0   -9603.2002   -5379.5074    788.68421    9.2392003    9.2392003    9.2392003    31.558326 
   25500    298.04675   -10485.803            0    -9598.271    -10944.71    787.61011    9.2350041    9.2350041    9.2350041    53.014306 
   25600    290.22736   -10455.788            0   -9591.5409     6852.341     786.3743    9.2301715    9.2301715    9.2301715    55.730677 
   25700    304.08683   -10491.934            0   -9586.4158   -13328.933     785.0056    9.2248133    9.2248133    9.2248133    44.657411 
   25800    304.29678   -10487.222            0   -9581.0781    484.23801    783.18351    9.2176705    9.2176705    9.2176705     48.05064 
   25900    310.68054   -10502.284            0   -9577.1305    4613.8799    781.26396    9.2101336    9.2101336    9.2101336    52.975911 
   26000    292.38227   -10443.382            0   -9572.7178    17673.185    779.61004    9.2036298    9.2036298    9.2036298    32.197434 
Loop time of 23.4693 on 16 procs for 1000 steps with 1000 atoms

Performance: 3.681 ns/day, 6.519 hours/ns, 42.609 timesteps/s
94.4% CPU use with 16 MPI tasks x no OpenMP threads

MPI task timing breakdown:
Section |  min time  |  avg time  |  max time  |%varavg| %total
---------------------------------------------------------------
Pair    | 1.6312     | 1.7396     | 2.1048     |   8.0 |  7.41
Neigh   | 0.58885    | 0.61314    | 0.71515    |   3.7 |  2.61
Comm    | 0.29073    | 0.7571     | 0.8885     |  15.2 |  3.23
Output  | 14.238     | 14.622     | 20.329     |  38.5 | 62.30
Modify  | 0.021672   | 5.7305     | 6.1156     |  61.6 | 24.42
Other   |            | 0.006922   |            |       |  0.03

Nlocal:    62.5 ave 72 max 57 min
Histogram: 3 1 3 3 2 1 1 0 0 2
Nghost:    1871.12 ave 1893 max 1851 min
Histogram: 2 2 2 2 1 1 0 3 2 1
Neighs:    0 ave 0 max 0 min
Histogram: 16 0 0 0 0 0 0 0 0 0
FullNghs:  18927.4 ave 22098 max 17143 min
Histogram: 3 1 4 2 2 2 0 0 1 1

Total # of neighbors = 302838
Ave neighs/atom = 302.838
Neighbor list builds = 1000
Dangerous builds not checked
Setting up Verlet run ...
  Unit style    : real
  Current step  : 26000
  Time step     : 1
Per MPI rank memory allocation (min/avg/max) = 4.576 | 4.578 | 4.581 Mbytes
Step Temp E_pair E_mol TotEng Press Volume Lx Ly Lz S/CPU 
   26000    292.38227   -10443.382            0   -9572.7178    17673.185    779.61004    9.2036298    9.2036298    9.2036298            0 
   26100    305.63175     -10480.5            0   -9570.3808    2436.0895    778.79593     9.200425     9.200425     9.200425    40.275689 
   26200    309.30407   -10489.354            0   -9568.2993    9008.4783    779.22964    9.2021326    9.2021326    9.2021326     43.42488 
   26300    299.89428   -10459.748            0   -9566.7138    14774.549    780.71377    9.2079711    9.2079711    9.2079711     34.69313 
   26400    312.97972   -10500.584            0   -9568.5838   -1598.9519    783.10712    9.2173708    9.2173708    9.2173708    39.643033 
   26500    291.83437   -10439.589            0   -9570.5563    4042.4845    785.93131     9.228438     9.228438     9.228438    63.616089 
   26600    306.36238   -10488.571            0   -9576.2761    3287.7487    789.23093    9.2413347    9.2413347    9.2413347    49.089976 
   26700    296.47227    -10464.56            0   -9581.7164   -14849.249    792.54957    9.2542696    9.2542696    9.2542696    42.056185 
   26800     295.6048   -10471.019            0   -9590.7585   -28005.104    795.06952    9.2640673    9.2640673    9.2640673    47.924424 
   26900    299.99839   -10495.277            0   -9601.9329   -11803.533    796.52619    9.2697215    9.2697215    9.2697215    47.855666 
   27000    295.33796   -10493.738            0   -9614.2718   -13903.384     796.7431    9.2705629    9.2705629    9.2705629    49.236775 
Loop time of 22.3847 on 16 procs for 1000 steps with 1000 atoms

Performance: 3.860 ns/day, 6.218 hours/ns, 44.673 timesteps/s
94.5% CPU use with 16 MPI tasks x no OpenMP threads

MPI task timing breakdown:
Section |  min time  |  avg time  |  max time  |%varavg| %total
---------------------------------------------------------------
Pair    | 1.6756     | 1.7564     | 2.1793     |   9.3 |  7.85
Neigh   | 0.58905    | 0.61894    | 0.74583    |   5.1 |  2.77
Comm    | 0.30022    | 0.84956    | 0.96043    |  17.6 |  3.80
Output  | 13.554     | 13.906     | 19.129     |  36.2 | 62.12
Modify  | 0.02246    | 5.2466     | 5.5992     |  58.9 | 23.44
Other   |            | 0.00698    |            |       |  0.03

Nlocal:    62.5 ave 68 max 57 min
Histogram: 1 1 1 2 3 4 1 1 0 2
Nghost:    1830.75 ave 1847 max 1820 min
Histogram: 4 2 2 0 3 1 0 1 2 1
Neighs:    0 ave 0 max 0 min
Histogram: 16 0 0 0 0 0 0 0 0 0
FullNghs:  18530.8 ave 20219 max 16885 min
Histogram: 1 1 1 2 3 5 0 1 1 1

Total # of neighbors = 296492
Ave neighs/atom = 296.492
Neighbor list builds = 1000
Dangerous builds not checked
Setting up Verlet run ...
  Unit style    : real
  Current step  : 27000
  Time step     : 1
Per MPI rank memory allocation (min/avg/max) = 4.576 | 4.578 | 4.581 Mbytes
Step Temp E_pair E_mol TotEng Press Volume Lx Ly Lz S/CPU 
   27000    295.33796   -10493.738            0   -9614.2718   -13903.384     796.7431    9.2705629    9.2705629    9.2705629            0 
   27100    300.50353   -10519.846            0   -9624.9978   -15064.409    795.80028    9.2669047    9.2669047    9.2669047    54.856894 
   27200    289.31483   -10495.367            0   -9633.8369   -17697.987    793.90459    9.2595405    9.2595405    9.2595405      46.2935 
   27300    296.25443   -10523.326            0   -9641.1311    -7170.706    791.31691    9.2494693    9.2494693    9.2494693    41.857973 
   27400    291.44813   -10513.926            0   -9646.0437   -2411.9555    788.44445    9.2382639    9.2382639    9.2382639    34.259894 
   27500    291.86794   -10519.536            0   -9650.4031   -4525.7739    785.72715    9.2276388    9.2276388    9.2276388     50.41195 
   27600    301.65616   -10551.098            0   -9652.8179   -4922.7995    783.04288    9.2171187    9.2171187    9.2171187    39.738495 
   27700    291.68801   -10520.313            0   -9651.7162    1578.4353    780.39656    9.2067238    9.2067238    9.2067238    45.330505 
   27800    311.32825   -10577.966            0   -9650.8834    9899.1845    778.27324    9.1983663    9.1983663    9.1983663    48.823563 
   27900    292.77657   -10519.898            0   -9648.0595    18569.134    776.65552    9.1919886    9.1919886    9.1919886    38.435192 
   28000    297.58423   -10530.911            0   -9644.7563    5256.6897     775.5152    9.1874877    9.1874877    9.1874877    40.601354 
Loop time of 23.11 on 16 procs for 1000 steps with 1000 atoms

[...]
  347700    305.89149   -11460.251            0   -10549.358   -10778.459    757.69135    9.1165554    9.1165554    9.1165554    34.837046 
  347800    297.41185   -11435.695            0   -10550.053   -11085.087    757.43559    9.1155295    9.1155295    9.1155295    43.493736 
  347900    291.31314   -11418.369            0   -10550.888   -15967.336    755.65897    9.1083969    9.1083969    9.1083969    46.809211 
  348000    297.36127   -11437.577            0   -10552.086    9658.6365    752.39524    9.0952648    9.0952648    9.0952648    47.153673 
  348100    288.42747   -11405.089            0   -10546.201    14801.178    748.85146    9.0809628    9.0809628    9.0809628    51.695399 
  348200    298.84468   -11433.724            0   -10543.815    14234.595    746.07056    9.0697079    9.0697079    9.0697079    43.784434 
  348300    300.10931   -11429.706            0   -10536.032    15421.762    744.53385    9.0634765    9.0634765    9.0634765     55.16319 
  348400    307.02306   -11443.684            0   -10529.422    34529.875    744.56513    9.0636035    9.0636035    9.0636035    50.230207 
  348500    295.51381   -11399.391            0   -10519.401    26308.133    746.27384    9.0705316    9.0705316    9.0705316      48.1786 
  348600    297.31109   -11395.226            0   -10509.884   -886.26991    749.47983     9.083502     9.083502     9.083502    48.718445 
  348700    291.64091   -11367.182            0   -10498.726   -12236.577    753.09544    9.0980853    9.0980853    9.0980853     40.50881 
  348800    303.74877   -11393.634            0   -10489.122   -18214.193      756.547    9.1119635    9.1119635    9.1119635    48.781902 
  348900    301.06114   -11374.113            0   -10477.604   -27831.766    759.27215    9.1228911    9.1228911    9.1228911    47.228531 
  349000    323.65844   -11434.781            0   -10470.981   -28197.752     760.4151    9.1274664    9.1274664    9.1274664    49.337405 
  349100    312.31027   -11394.228            0   -10464.222   -24330.679    759.87468    9.1253036    9.1253036    9.1253036    44.990289 
  349200    292.26736   -11329.189            0   -10458.867   -20530.316    758.06046    9.1180355    9.1180355    9.1180355    51.981263 
  349300    322.72645   -11420.342            0   -10459.318    19278.184    755.46416    9.1076141    9.1076141    9.1076141     47.55314 
  349400     306.3654   -11370.249            0   -10457.946    -2232.792    753.20999    9.0985466    9.0985466    9.0985466    35.022475 
  349500    311.86246   -11388.507            0   -10459.834    5616.6237    751.14176    9.0902111    9.0902111    9.0902111    37.669836 
  349600     300.7841   -11357.514            0   -10461.831     14915.55    749.56434    9.0838434    9.0838434    9.0838434    42.078153 
  349700    308.09741   -11384.236            0   -10466.774    16835.072    749.00278    9.0815743    9.0815743    9.0815743    43.459729 
  349800    307.89825   -11391.375            0   -10474.507    2809.0876     749.5805    9.0839087    9.0839087    9.0839087    56.924275 
  349900    318.83756   -11430.251            0   -10480.807    4843.8713    750.73659    9.0885764    9.0885764    9.0885764    44.830528 
  350000    299.31267   -11376.821            0   -10485.519    13009.477    752.30279    9.0948922    9.0948922    9.0948922    53.560381 
  350100    300.02214   -11385.236            0   -10491.822   -2394.6828    754.03838     9.101881     9.101881     9.101881    41.145473 
  350200    302.64711    -11396.16            0   -10494.929   -22410.114    755.42613    9.1074613    9.1074613    9.1074613    47.079179 
  350300    303.98495   -11403.259            0   -10498.044   -7167.1377    755.86129    9.1092097    9.1092097    9.1092097    39.999054 
  350400    308.21203   -11418.647            0   -10500.844    -23022.52    755.85695    9.1091923    9.1091923    9.1091923    49.393931 
  350500    292.89581   -11373.684            0    -10501.49   -10780.545     754.8787    9.1052608    9.1052608    9.1052608    35.892652 
  350600    288.56982   -11362.653            0   -10503.341   -18310.304    753.31079    9.0989525    9.0989525    9.0989525    44.484252 
  350700    303.76092     -11412.3            0   -10507.752   -7916.2924    751.48701    9.0916036    9.0916036    9.0916036    45.741301 
  350800    306.45049   -11422.947            0    -10510.39     9097.409    749.64229    9.0841583    9.0841583    9.0841583    56.554192 
  350900    294.69202   -11390.006            0   -10512.463    356.89343     748.1849    9.0782676    9.0782676    9.0782676    36.429476 
  351000    291.10346   -11382.142            0   -10515.286    14416.518    747.31468    9.0747465    9.0747465    9.0747465    42.994924 
  351100    300.07532   -11413.204            0   -10519.631    22114.969    747.44188    9.0752614    9.0752614    9.0752614    52.725106 
  351200    299.09471   -11412.143            0    -10521.49    496.48766    748.64297    9.0801199    9.0801199    9.0801199    45.584361 
  351300    296.22531   -11406.682            0   -10524.574    921.90822    750.44551    9.0874016    9.0874016    9.0874016    48.067974 
  351400    298.99673   -11417.495            0   -10527.134    -6789.457    752.51754    9.0957576    9.0957576    9.0957576     46.41377 
  351500    286.80224   -11381.885            0   -10527.837   -997.69533    754.37034    9.1032164    9.1032164    9.1032164    39.978472 
  351600    290.88681   -11395.903            0   -10529.691     125.3485    756.32586    9.1110756    9.1110756    9.1110756    37.824824 
  351700    290.54426   -11393.651            0    -10528.46   -4465.5751    758.32162    9.1190825    9.1190825    9.1190825    46.131124 
  351800    292.77623    -11396.66            0   -10524.823   -6630.2986    759.66164    9.1244508    9.1244508    9.1244508    48.188725 
  351900    299.94766   -11411.164            0   -10517.971   -25917.999    760.22627    9.1267108    9.1267108    9.1267108     47.08838 
  352000    305.89691   -11417.749            0    -10506.84   -20779.504    759.00495    9.1218208    9.1218208    9.1218208    50.674137 
  352100    312.17208   -11424.578            0   -10494.983   -8909.8258    755.94179    9.1095331    9.1095331    9.1095331    48.480766 
  352200    300.37901   -11374.876            0   -10480.399   -3005.8957    751.99319    9.0936444    9.0936444    9.0936444    47.137438 
  352300    303.72555   -11372.042            0   -10467.599    11053.852    748.02142    9.0776063    9.0776063    9.0776063    40.742806 
  352400    298.56425   -11346.068            0   -10456.995    31432.843    745.39681    9.0669769    9.0669769    9.0669769    33.270247 
  352500    308.87518   -11372.329            0   -10452.552    32501.005     745.0175    9.0654387    9.0654387    9.0654387    57.440669 
  352600    308.19215   -11367.997            0   -10450.254    30351.867    746.88286    9.0729983    9.0729983    9.0729983    44.731348 
  352700    325.53225    -11423.73            0   -10454.351     2828.926    750.64963    9.0882254    9.0882254    9.0882254    56.603973 
  352800    309.13406   -11376.836            0   -10456.287    8768.6547    755.10815    9.1061832    9.1061832    9.1061832    53.050384 
  352900    312.72342   -11392.547            0    -10461.31   -5585.1667    759.34183    9.1231702    9.1231702    9.1231702    40.125225 
  353000     297.9573   -11352.473            0   -10465.208   -28702.077      762.434    9.1355371    9.1355371    9.1355371    53.017019 
  353100    300.81117   -11368.219            0   -10472.455   -37036.457    763.41772    9.1394644    9.1394644    9.1394644      54.2609 
  353200    305.54023   -11392.171            0   -10482.325   -22887.469    762.13467    9.1343414    9.1343414    9.1343414    41.891525 
  353300     289.4338   -11350.145            0   -10488.261   -11048.338    759.10563    9.1222241    9.1222241    9.1222241     51.48434 
  353400    297.18785   -11382.912            0   -10497.938   -6462.9876    755.29036    9.1069156    9.1069156    9.1069156    38.929414 
  353500    307.79681   -11420.799            0   -10504.233    11917.438    751.32863    9.0909649    9.0909649    9.0909649    49.583947 
  353600    300.64838   -11405.643            0   -10510.363    11026.395    748.38343    9.0790705    9.0790705    9.0790705    49.342304 
  353700    301.73594   -11413.414            0   -10514.896    13400.122    747.10509    9.0738981    9.0738981    9.0738981    36.761637 
  353800    298.66444   -11409.488            0   -10520.116    14256.132    747.25437    9.0745024    9.0745024    9.0745024    50.255722 
  353900    304.53078   -11432.374            0   -10525.533    5457.4481    748.71871    9.0804261    9.0804261    9.0804261    44.846223 
  354000     297.2511   -11411.763            0     -10526.6    882.42303    750.67389    9.0883234    9.0883234    9.0883234    43.417771 
  354100    297.14721   -11413.254            0     -10528.4   -10267.488    752.63953     9.096249     9.096249     9.096249    40.781529 
  354200    302.76542   -11430.888            0   -10529.305   -20142.529    754.18571    9.1024737    9.1024737    9.1024737    35.571223 
  354300    314.31596   -11465.846            0   -10529.867   -6572.3531    754.97447    9.1056459    9.1056459    9.1056459    32.132884 
  354400    306.94309   -11442.158            0   -10528.134    1067.7869    755.17774     9.106463     9.106463     9.106463    40.551961 
  354500    296.47353   -11409.796            0   -10526.949   -1549.4082    754.95679    9.1055748    9.1055748    9.1055748    39.891495 
  354600    287.10239   -11379.489            0   -10524.547   -3302.6482    754.77632    9.1048492    9.1048492    9.1048492    49.422528 
  354700    287.85088   -11380.916            0   -10523.745   -8327.5603    754.60475    9.1041592    9.1041592    9.1041592    37.402246 
  354800    289.49015   -11385.733            0   -10523.681   -2498.8748    754.18894    9.1024867    9.1024867    9.1024867    36.383061 
  354900    307.26072    -11439.92            0    -10524.95   -6340.5662    753.59117    9.1000812    9.1000812    9.1000812    45.113502 
  355000    297.31166       -11409            0   -10523.657   -5669.9523    752.63958    9.0962492    9.0962492    9.0962492    38.726626 
  355100    299.28287   -11415.116            0   -10523.903    -2224.114     751.5169    9.0917241    9.0917241    9.0917241    48.623348 
  355200    302.51968   -11424.117            0   -10523.265    14744.615    750.52656    9.0877287    9.0877287    9.0877287      33.4949 
  355300     305.1131   -11431.364            0   -10522.789    9950.3468    749.91692    9.0852675    9.0852675    9.0852675    52.378936 
  355400    291.72116   -11390.779            0   -10522.083    10831.437    749.54027    9.0837462    9.0837462    9.0837462    44.038651 
  355500    308.02891    -11439.89            0   -10522.632    10523.967    749.79002     9.084755     9.084755     9.084755     36.27394 
  355600    290.26232   -11384.081            0   -10519.729   -10000.837    750.74795    9.0886222    9.0886222    9.0886222    49.370564 
  355700    307.26351   -11434.055            0   -10519.077   -1831.6241    751.63065    9.0921828    9.0921828    9.0921828    31.141003 
  355800    290.17832   -11380.073            0   -10515.971   -5470.3542    752.38054    9.0952055    9.0952055    9.0952055    56.028248 
  355900    308.73604   -11432.409            0   -10513.046   -5885.6902    752.74773    9.0966849    9.0966849    9.0966849    38.008254 
  356000    292.57361   -11380.337            0   -10509.103   -11986.076    752.72439    9.0965909    9.0965909    9.0965909    44.984335 
  356100    314.56968   -11442.655            0    -10505.92   -5312.7183    752.53036    9.0958092    9.0958092    9.0958092    36.664785 
  356200    312.50235   -11429.714            0   -10499.135   -2490.1573    752.10721     9.094104     9.094104     9.094104    44.105736 
  356300     304.7795   -11398.981            0     -10491.4   -3136.7385    751.75394    9.0926799    9.0926799    9.0926799    33.986948 
  356400     307.8727   -11401.581            0   -10484.789    2395.9271    751.56203    9.0919061    9.0919061    9.0919061    44.247791 
  356500    309.84878   -11398.014            0   -10475.337    22252.508    752.02453    9.0937708    9.0937708    9.0937708    48.388526 
  356600    310.30802   -11392.124            0    -10468.08   -4188.2388    753.27423    9.0988053    9.0988053    9.0988053    36.862364 
  356700    305.40533   -11368.809            0   -10459.364   -4139.1978    754.68907    9.1044983    9.1044983    9.1044983    47.356063 
  356800    314.29391   -11389.458            0   -10453.544   -4500.3575    756.08696    9.1101162    9.1101162    9.1101162    36.672141 
  356900    304.33142   -11354.676            0   -10448.429   -7731.9301    757.10024     9.114184     9.114184     9.114184    47.766921 
  357000    313.35832   -11381.391            0   -10448.264   -14904.748     757.2842    9.1149222    9.1149222    9.1149222    37.647426 
  357100    301.77596   -11346.852            0   -10448.215   -16201.703     756.4831     9.111707     9.111707     9.111707    53.355255 
  357200    310.83776   -11378.831            0   -10453.209   -17572.237    755.03596    9.1058931    9.1058931    9.1058931    43.002645 
  357300    304.19091   -11366.752            0   -10460.923    3455.3783     753.1475     9.098295     9.098295     9.098295      41.9545 
  357400    322.37313   -11434.368            0   -10474.395    3098.1517    751.46055    9.0914969    9.0914969    9.0914969    56.355643 
  357500    300.51475   -11383.316            0   -10488.434    7264.0309    750.24924    9.0866093    9.0866093    9.0866093    41.543368 
  357600     306.1136   -11415.895            0   -10504.341    8803.0265    749.33294    9.0829085    9.0829085    9.0829085    48.050619 
  357700    301.57162   -11415.091            0   -10517.062    5598.7422    748.70806    9.0803831    9.0803831    9.0803831     51.54278 
  357800    308.03134   -11444.666            0   -10527.401   -6062.3095    748.60882    9.0799819    9.0799819    9.0799819     44.12951 
  357900    298.17195   -11420.908            0   -10533.003    22756.998    748.89006    9.0811187    9.0811187    9.0811187    40.182099 
  358000    295.98845   -11418.644            0   -10537.241    9714.7728    750.03818    9.0857571    9.0857571    9.0857571    53.183267 
  358100    302.29777   -11440.981            0    -10540.79    1861.6073      752.059    9.0939097    9.0939097    9.0939097    38.836175 
  358200    288.52249    -11400.28            0   -10541.109   -14991.999     754.0132    9.1017796    9.1017796    9.1017796    53.887298 
  358300    297.69024   -11427.059            0   -10540.588   -22437.651     755.4705    9.1076396    9.1076396    9.1076396    32.786653 
  358400    294.88888   -11417.903            0   -10539.774   -18144.835    755.91171    9.1094123    9.1094123    9.1094123    40.792367 
  358500    306.86228   -11451.504            0   -10537.721   -6150.1157    755.55998    9.1079992    9.1079992    9.1079992    55.732049 
  358600    295.17971    -11412.34            0   -10533.345   -2549.5169    754.90793    9.1053783    9.1053783    9.1053783    34.765877 
  358700    297.26043   -11414.289            0   -10529.098   -1495.3158    753.97206    9.1016141    9.1016141    9.1016141    47.319525 
  358800    294.68568    -11401.15            0   -10523.626   -582.80789    752.91317    9.0973513    9.0973513    9.0973513    54.722779 
  358900    298.31737    -11406.02            0   -10517.681    1081.3347    751.96292    9.0935224    9.0935224    9.0935224     33.01519 
  359000    299.84121   -11404.533            0   -10511.657    11241.946    750.94714     9.089426     9.089426     9.089426    42.401302 
  359100    296.49766   -11388.755            0   -10505.835   -3799.2098    750.48333    9.0875542    9.0875542    9.0875542    29.690651 
  359200    294.04196   -11372.259            0   -10496.652   -3307.1224    750.39172    9.0871845    9.0871845    9.0871845    43.443356 
  359300      298.296    -11377.91            0   -10489.636    10641.248    750.46105    9.0874643    9.0874643    9.0874643    34.301046 
  359400    308.90857   -11402.387            0    -10482.51    8758.9182    750.91414    9.0892928    9.0892928    9.0892928    56.675731 
  359500    302.53598   -11374.508            0   -10473.608    612.80706    751.34296    9.0910227    9.0910227    9.0910227    36.523219 
  359600    298.13015   -11352.601            0    -10464.82    1278.0543    751.65217    9.0922696    9.0922696    9.0922696    33.808489 
  359700     309.1708    -11378.71            0   -10458.052    13766.744    752.44664    9.0954719    9.0954719    9.0954719    41.883542 
  359800    306.03833   -11362.827            0   -10451.497    6330.3017    753.68502    9.1004589    9.1004589    9.1004589    48.336588 
  359900    297.67365   -11331.751            0   -10445.329   -9786.4619    755.10202    9.1061586    9.1061586    9.1061586    43.061243 
  360000    303.53452   -11344.128            0   -10440.254   -9378.9254     756.0167     9.109834     9.109834     9.109834    32.903127 
  360100    308.07143    -11354.78            0   -10437.396   -5624.7661    756.02573    9.1098703    9.1098703    9.1098703    44.814929 
  360200    309.19902   -11353.871            0   -10433.129    13532.744     755.2995    9.1069524    9.1069524    9.1069524    43.022084 
  360300    310.77086   -11356.921            0   -10431.499   -1183.7795    753.98089    9.1016496    9.1016496    9.1016496     34.80531 
  360400     316.7912   -11376.251            0   -10432.901     8368.939    752.23768    9.0946298    9.0946298    9.0946298    45.269003 
  360500    311.33235   -11362.991            0   -10435.896    12850.031    750.73254      9.08856      9.08856      9.08856    30.410702 
  360600    309.47341   -11364.756            0   -10443.197    14460.224    749.77065    9.0846767    9.0846767    9.0846767    47.942902 
  360700    316.93981   -11401.001            0   -10457.208     8745.809    749.68775    9.0843419    9.0843419    9.0843419    36.226876 
  360800    304.84034   -11378.407            0   -10470.645    16875.767    750.58191    9.0879522    9.0879522    9.0879522    42.269686 
  360900    304.83869   -11392.707            0   -10484.949   -2850.0378    752.26227     9.094729     9.094729     9.094729     32.99177 
  361000    304.98848   -11406.514            0    -10498.31   -13475.033    753.80346    9.1009356    9.1009356    9.1009356    41.414938 
Loop time of 2311.16 on 16 procs for 100000 steps with 1000 atoms

Performance: 3.738 ns/day, 6.420 hours/ns, 43.268 timesteps/s
94.6% CPU use with 16 MPI tasks x no OpenMP threads

MPI task timing breakdown:
Section |  min time  |  avg time  |  max time  |%varavg| %total
---------------------------------------------------------------
Pair    | 171.6      | 190.17     | 256.92     | 139.9 |  8.23
Neigh   | 63.997     | 69.632     | 88.659     |  67.3 |  3.01
Comm    | 55.257     | 141.03     | 165.12     | 209.4 |  6.10
Output  | 1274.2     | 1314.1     | 1906.5     | 422.0 | 56.86
Modify  | 2.8887     | 595.47     | 635.41     | 627.0 | 25.76
Other   |            | 0.7747     |            |       |  0.03

Nlocal:    62.5 ave 70 max 59 min
Histogram: 4 2 4 1 2 1 1 0 0 1
Nghost:    1911.75 ave 1942 max 1878 min
Histogram: 1 1 6 0 0 0 0 3 3 2
Neighs:    0 ave 0 max 0 min
Histogram: 16 0 0 0 0 0 0 0 0 0
FullNghs:  19567.5 ave 22174 max 18209 min
Histogram: 4 1 1 5 2 0 2 0 0 1

Total # of neighbors = 313080
Ave neighs/atom = 313.08
Neighbor list builds = 100000
Dangerous builds not checked
Total wall time: 2:26:56
