LAMMPS (16 Mar 2018)
Reading data file ...
  orthogonal box = (-4.74111 -4.74111 -4.74111) to (4.74111 4.74111 4.74111)
  2 by 2 by 4 MPI processor grid
  reading atoms ...
  1000 atoms
Reading potential file /home/fs01/ajm529/lammps-16Mar18/potentials/sw_potentials/AG/eps2.23.sw with DATE: 2008-01-29
Neighbor list info ...
  update every 1 steps, delay 0 steps, check no
  max neighbors/atom: 2000, page size: 100000
  master list distance cutoff = 3.836
  ghost atom cutoff = 3.836
  binsize = 1.918, bins = 5 5 5
  1 neighbor lists, perpetual/occasional/extra = 1 0 0
  (1) pair sw, perpetual
      attributes: full, newton on
      pair build: full/bin/atomonly
      stencil: full/bin/3d
      bin: standard
Setting up Verlet run ...
  Unit style    : real
  Current step  : 0
  Time step     : 1
Per MPI rank memory allocation (min/avg/max) = 3.517 | 3.518 | 3.52 Mbytes
Step Temp E_pair E_mol TotEng Press Volume Lx Ly Lz S/CPU 
       0          300   -10082.653            0   -9189.3046   -26753.391    852.57059    9.4822219    9.4822219    9.4822219            0 
     100    328.13703   -10172.843            0   -9195.7074   -58615.676    850.55128    9.4747298    9.4747298    9.4747298    62.802825 
     200    335.50038   -10210.807            0   -9211.7445   -41131.044    844.15389    9.4509154    9.4509154    9.4509154    56.472529 
     300    329.19794   -10217.597            0   -9237.3014   -36400.612    834.59967    9.4151246    9.4151246    9.4151246    63.609535 
     400    334.47219   -10260.802            0    -9264.801   -32623.013     822.8498    9.3707321    9.3707321    9.3707321    63.365513 
     500    336.57326   -10288.201            0   -9285.9438    290.25933    810.90495    9.3251677    9.3251677    9.3251677    61.613178 
     600    328.60502   -10280.299            0   -9301.7691    15023.659    800.85622    9.2864883    9.2864883    9.2864883    58.800892 
     700    335.67489   -10317.898            0   -9318.3152    19149.885    793.48379    9.2579043    9.2579043    9.2579043    60.229604 
     800    330.38609    -10319.65            0   -9335.8167    20018.781    788.67614    9.2391688    9.2391688    9.2391688    66.916226 
     900    328.68762   -10335.992            0   -9357.2167    13900.245    785.59556    9.2271236    9.2271236    9.2271236    70.534641 
    1000    326.15921   -10348.719            0   -9377.4726    7855.4563    783.86089    9.2203272    9.2203272    9.2203272     53.48612 
Loop time of 16.2791 on 16 procs for 1000 steps with 1000 atoms

Performance: 5.307 ns/day, 4.522 hours/ns, 61.428 timesteps/s
95.0% CPU use with 16 MPI tasks x no OpenMP threads

MPI task timing breakdown:
Section |  min time  |  avg time  |  max time  |%varavg| %total
---------------------------------------------------------------
Pair    | 2.1358     | 2.2364     | 2.3661     |   4.4 | 13.74
Neigh   | 0.7464     | 0.78382    | 0.82683    |   2.4 |  4.81
Comm    | 0.82545    | 0.99799    | 1.1366     |   8.5 |  6.13
Output  | 8.287      | 8.534      | 12.189     |  32.3 | 52.42
Modify  | 0.063472   | 3.7187     | 3.9657     |  48.9 | 22.84
Other   |            | 0.008182   |            |       |  0.05

Nlocal:    62.5 ave 68 max 56 min
Histogram: 2 0 1 1 1 4 2 2 2 1
Nghost:    1851.94 ave 1865 max 1836 min
Histogram: 1 0 3 3 2 0 1 1 2 3
Neighs:    0 ave 0 max 0 min
Histogram: 16 0 0 0 0 0 0 0 0 0
FullNghs:  18808.4 ave 20699 max 16896 min
Histogram: 2 1 1 1 3 2 1 4 0 1

Total # of neighbors = 300934
Ave neighs/atom = 300.934
Neighbor list builds = 1000
Dangerous builds not checked
Setting up Verlet run ...
  Unit style    : real
  Current step  : 1000
  Time step     : 1
Per MPI rank memory allocation (min/avg/max) = 3.768 | 4.376 | 4.579 Mbytes
Step Temp E_pair E_mol TotEng Press Volume Lx Ly Lz S/CPU 
    1000    326.15921   -10348.719            0   -9377.4726    7855.4563    783.86089    9.2203272    9.2203272    9.2203272            0 
    1100    323.39108    -10359.91            0   -9396.9062    13796.534    783.22159    9.2178199    9.2178199    9.2178199    62.980349 
    1200    319.45672   -10367.734            0   -9416.4468    18361.716    783.69456     9.219675     9.219675     9.219675    73.144586 
    1300    314.70143   -10371.923            0   -9434.7964    11089.366    784.92175    9.2244848    9.2244848    9.2244848    62.245856 
    1400    314.95021   -10391.599            0   -9453.7311    6878.7951    786.60353    9.2310683    9.2310683    9.2310683    69.832058 
    1500    311.11479   -10398.386            0    -9471.939     1526.152    788.29798    9.2376919    9.2376919    9.2376919    65.885164 
    1600    318.72725   -10438.062            0   -9488.9471   -7830.1425    790.40656     9.245921     9.245921     9.245921    65.151614 
    1700    307.12036   -10418.224            0   -9503.6724   -10326.202    792.09045    9.2524822    9.2524822    9.2524822     72.68441 
    1800    318.44897   -10468.309            0   -9520.0226   -10889.872    792.91254    9.2556821    9.2556821    9.2556821    62.588391 
    1900    302.54289   -10435.699            0   -9534.7781    395.03859    793.06843    9.2562886    9.2562886    9.2562886     68.12548 
    2000    311.57066   -10477.803            0    -9549.999    1123.3357    792.72569     9.254955     9.254955     9.254955    68.983349 
Loop time of 14.9372 on 16 procs for 1000 steps with 1000 atoms

Performance: 5.784 ns/day, 4.149 hours/ns, 66.947 timesteps/s
95.2% CPU use with 16 MPI tasks x no OpenMP threads

MPI task timing breakdown:
Section |  min time  |  avg time  |  max time  |%varavg| %total
---------------------------------------------------------------
Pair    | 2.2874     | 2.4546     | 2.6273     |   5.5 | 16.43
Neigh   | 0.7651     | 0.81069    | 0.86217    |   2.6 |  5.43
Comm    | 0.73784    | 0.96388    | 1.1773     |  11.1 |  6.45
Output  | 6.8609     | 7.1009     | 10.651     |  34.4 | 47.54
Modify  | 0.050281   | 3.5989     | 3.8387     |  48.3 | 24.09
Other   |            | 0.008307   |            |       |  0.06

Nlocal:    62.5 ave 68 max 57 min
Histogram: 2 1 0 2 2 4 2 0 2 1
Nghost:    1835 ave 1859 max 1813 min
Histogram: 2 1 1 1 3 3 2 1 1 1
Neighs:    0 ave 0 max 0 min
Histogram: 16 0 0 0 0 0 0 0 0 0
FullNghs:  18638.4 ave 20564 max 16718 min
Histogram: 2 1 0 1 5 2 2 1 1 1

Total # of neighbors = 298214
Ave neighs/atom = 298.214
Neighbor list builds = 1000
Dangerous builds not checked
Setting up Verlet run ...
  Unit style    : real
  Current step  : 2000
  Time step     : 1
Per MPI rank memory allocation (min/avg/max) = 3.768 | 4.527 | 4.579 Mbytes
Step Temp E_pair E_mol TotEng Press Volume Lx Ly Lz S/CPU 
    2000    311.57066   -10477.803            0    -9549.999    1123.3357    792.72569     9.254955     9.254955     9.254955            0 
    2100    312.08743   -10492.941            0   -9563.5983   -9157.8415    791.81569    9.2514123    9.2514123    9.2514123    52.722901 
    2200    306.85838   -10488.973            0   -9575.2008   -3250.6781    790.68684    9.2470137    9.2470137    9.2470137    71.205933 
    2300    295.75371   -10466.738            0   -9586.0344   -1617.8914     789.2767    9.2415133    9.2415133    9.2415133    65.348064 
    2400    292.31737   -10468.816            0   -9598.3446   -9867.0941    787.68841    9.2353101    9.2353101    9.2353101    58.625561 
    2500    289.73235   -10470.234            0   -9607.4602     1705.191    785.65799     9.227368     9.227368     9.227368    63.257789 
    2600    297.72206   -10503.041            0   -9616.4751   -8809.8699    783.66338    9.2195527    9.2195527    9.2195527    89.414458 
    2700    302.44361   -10526.098            0   -9625.4723    18528.956    781.46902    9.2109393    9.2109393    9.2109393    67.357594 
    2800    304.00607   -10538.239            0   -9632.9612   -1245.3105    779.87088    9.2046561    9.2046561    9.2046561    73.304438 
    2900    286.05407   -10489.845            0   -9638.0249     13358.01     778.7826    9.2003725    9.2003725    9.2003725    86.706163 
    3000    298.90599   -10534.666            0   -9644.5753    17834.433    778.40571    9.1988881    9.1988881    9.1988881    59.904432 
Loop time of 14.9078 on 16 procs for 1000 steps with 1000 atoms

Performance: 5.796 ns/day, 4.141 hours/ns, 67.079 timesteps/s
95.2% CPU use with 16 MPI tasks x no OpenMP threads

MPI task timing breakdown:
Section |  min time  |  avg time  |  max time  |%varavg| %total
---------------------------------------------------------------
Pair    | 2.2472     | 2.4786     | 2.657      |   6.5 | 16.63
Neigh   | 0.77121    | 0.82222    | 0.86548    |   2.4 |  5.52
Comm    | 0.76397    | 0.98576    | 1.269      |  12.4 |  6.61
Output  | 6.9716     | 7.1963     | 10.516     |  32.0 | 48.27
Modify  | 0.096165   | 3.4166     | 3.6416     |  46.4 | 22.92
Other   |            | 0.00835    |            |       |  0.06

Nlocal:    62.5 ave 68 max 56 min
Histogram: 2 1 0 3 0 3 3 0 0 4
Nghost:    1865.25 ave 1888 max 1852 min
Histogram: 3 2 2 2 2 1 3 0 0 1
Neighs:    0 ave 0 max 0 min
Histogram: 16 0 0 0 0 0 0 0 0 0
FullNghs:  18987.5 ave 20737 max 16990 min
Histogram: 1 2 1 2 2 1 3 0 1 3

Total # of neighbors = 303800
Ave neighs/atom = 303.8
Neighbor list builds = 1000
Dangerous builds not checked
Setting up Verlet run ...
  Unit style    : real
  Current step  : 3000
  Time step     : 1
Per MPI rank memory allocation (min/avg/max) = 4.577 | 4.578 | 4.579 Mbytes
Step Temp E_pair E_mol TotEng Press Volume Lx Ly Lz S/CPU 
    3000    298.90599   -10534.666            0   -9644.5753    17834.433    778.40571    9.1988881    9.1988881    9.1988881            0 
    3100    293.79469   -10524.107            0   -9649.2365    4878.3759    778.72822    9.2001584    9.2001584    9.2001584    56.666244 
    3200    294.06283   -10529.239            0     -9653.57    2716.5037    779.75532    9.2042015    9.2042015    9.2042015    71.479407 
    3300    292.72355   -10527.715            0   -9656.0338   -1185.8355    781.23122     9.210005     9.210005     9.210005    68.362992 
    3400    285.51417   -10505.072            0   -9654.8591    3081.7501    782.74667    9.2159564    9.2159564    9.2159564    78.158923 
    3500    299.81678   -10546.895            0   -9654.0922   -1812.2354    783.84424    9.2202619    9.2202619    9.2202619    61.930785 
    3600    278.22548    -10477.14            0   -9648.6321   -3814.0843    784.60196    9.2232319    9.2232319    9.2232319    83.043054 
    3700    308.16323   -10562.037            0   -9644.3793    4845.6564    785.27798    9.2258801    9.2258801    9.2258801    65.510737 
    3800     312.0175    -10568.02            0   -9638.8851   -3601.7853    785.95761    9.2285409    9.2285409    9.2285409    61.481703 
    3900    289.01462   -10489.544            0   -9628.9081    1087.2378      786.444    9.2304442    9.2304442    9.2304442    83.205035 
    4000    289.23617    -10481.12            0   -9619.8243    2004.0859    787.00873    9.2326531    9.2326531    9.2326531    83.260221 
Loop time of 14.2807 on 16 procs for 1000 steps with 1000 atoms

Performance: 6.050 ns/day, 3.967 hours/ns, 70.024 timesteps/s
95.3% CPU use with 16 MPI tasks x no OpenMP threads

MPI task timing breakdown:
Section |  min time  |  avg time  |  max time  |%varavg| %total
---------------------------------------------------------------
Pair    | 2.3097     | 2.401      | 2.5443     |   4.6 | 16.81
Neigh   | 0.76476    | 0.79404    | 0.83229    |   2.2 |  5.56
Comm    | 0.86537    | 1.0466     | 1.1674     |   8.8 |  7.33
Output  | 6.4444     | 6.6685     | 9.9818     |  33.1 | 46.70
Modify  | 0.048491   | 3.3623     | 3.5864     |  46.7 | 23.54
Other   |            | 0.008205   |            |       |  0.06

Nlocal:    62.5 ave 70 max 57 min
Histogram: 2 1 0 4 4 3 1 0 0 1
Nghost:    1850.81 ave 1864 max 1837 min
Histogram: 2 1 1 1 3 2 0 2 2 2
Neighs:    0 ave 0 max 0 min
Histogram: 16 0 0 0 0 0 0 0 0 0
FullNghs:  18743.9 ave 21032 max 16878 min
Histogram: 2 0 1 2 4 5 0 1 0 1

Total # of neighbors = 299902
Ave neighs/atom = 299.902
Neighbor list builds = 1000
Dangerous builds not checked
Setting up Verlet run ...
  Unit style    : real
  Current step  : 4000
  Time step     : 1
Per MPI rank memory allocation (min/avg/max) = 4.577 | 4.578 | 4.579 Mbytes
Step Temp E_pair E_mol TotEng Press Volume Lx Ly Lz S/CPU 
    4000    289.23617    -10481.12            0   -9619.8243    2004.0859    787.00873    9.2326531    9.2326531    9.2326531            0 
    4100    310.46407   -10536.568            0   -9612.0585   -5238.8472    787.27436    9.2336917    9.2336917    9.2336917    51.061342 
    4200    289.79855   -10465.153            0    -9602.182    894.56848    786.97746    9.2325308    9.2325308    9.2325308    78.491831 
    4300    287.14996   -10449.354            0   -9594.2703   -22844.247    786.58803    9.2310077    9.2310077    9.2310077    63.485496 
    4400    300.15455   -10480.655            0   -9586.8458   -2932.8587    785.63669    9.2272847    9.2272847    9.2272847    68.248648 
    4500    291.15856   -10445.597            0   -9578.5763   -7412.4852    784.81377    9.2240618    9.2240618    9.2240618    66.852589 
    4600    306.07556   -10482.786            0   -9571.3448    1659.4411    784.25902     9.221888     9.221888     9.221888    55.557036 
    4700    306.63074   -10479.265            0   -9566.1711    1272.5553    784.15635    9.2214855    9.2214855    9.2214855    66.759374 
    4800    302.34291   -10461.936            0   -9561.6105   -4668.9985    784.61961    9.2233011    9.2233011    9.2233011    69.839659 
    4900    304.81829   -10465.752            0    -9558.055    6288.5684    785.22894    9.2256881    9.2256881    9.2256881    60.443465 
    5000    298.98817   -10446.201            0   -9555.8656    1222.0356    786.21594    9.2295519    9.2295519    9.2295519    74.037784 
Loop time of 15.5035 on 16 procs for 1000 steps with 1000 atoms

Performance: 5.573 ns/day, 4.307 hours/ns, 64.502 timesteps/s
95.1% CPU use with 16 MPI tasks x no OpenMP threads

MPI task timing breakdown:
Section |  min time  |  avg time  |  max time  |%varavg| %total
---------------------------------------------------------------
Pair    | 2.3221     | 2.4227     | 2.6051     |   4.4 | 15.63
Neigh   | 0.78618    | 0.80346    | 0.84101    |   1.7 |  5.18
Comm    | 0.78868    | 1.0083     | 1.1121     |   8.2 |  6.50
Output  | 7.4011     | 7.6424     | 11.211     |  33.3 | 49.29
Modify  | 0.049716   | 3.6184     | 3.8595     |  48.4 | 23.34
Other   |            | 0.008261   |            |       |  0.05

Nlocal:    62.5 ave 69 max 56 min
Histogram: 1 0 2 3 2 3 2 2 0 1
Nghost:    1858.25 ave 1877 max 1831 min
Histogram: 1 0 0 1 1 6 4 0 2 1
Neighs:    0 ave 0 max 0 min
Histogram: 16 0 0 0 0 0 0 0 0 0
FullNghs:  18767.4 ave 20911 max 16755 min
Histogram: 1 0 2 3 3 3 1 2 0 1

Total # of neighbors = 300278
Ave neighs/atom = 300.278
Neighbor list builds = 1000
Dangerous builds not checked
Setting up Verlet run ...
  Unit style    : real
  Current step  : 5000
  Time step     : 1
Per MPI rank memory allocation (min/avg/max) = 4.577 | 4.578 | 4.579 Mbytes
Step Temp E_pair E_mol TotEng Press Volume Lx Ly Lz S/CPU 
    5000    298.98817   -10446.201            0   -9555.8656    1222.0356    786.21594    9.2295519    9.2295519    9.2295519            0 
    5100    299.21969   -10446.946            0   -9555.9204    -18610.48     787.5857    9.2349087    9.2349087    9.2349087    55.530274 
    5200    307.13489   -10471.088            0   -9556.4929   -5290.6488    788.59929    9.2388687    9.2388687    9.2388687     58.07729 
    5300    312.82556   -10490.398            0    -9558.857   -5707.9823    789.08781     9.240776     9.240776     9.240776    75.762617 
    5400    308.76714   -10482.945            0   -9563.4887   -2700.6295    788.97184    9.2403233    9.2403233    9.2403233    62.915177 
    5500    306.42476     -10482.2            0   -9569.7195    453.85322    788.53838    9.2386308    9.2386308    9.2386308    76.119167 
    5600    301.59356   -10476.389            0   -9578.2948    66.888189    788.11228    9.2369664    9.2369664    9.2369664    62.684644 
    5700    291.75888    -10458.15            0   -9589.3416    4040.4401    787.41017    9.2342226    9.2342226    9.2342226    57.043499 
    5800    293.14159    -10475.89            0   -9602.9641    3013.1761    786.93602    9.2323687    9.2323687    9.2323687    66.204135 
    5900    300.55508    -10512.09            0   -9617.0884   -3822.5185    786.93077    9.2323482    9.2323482    9.2323482    69.642933 
    6000    297.95647   -10516.626            0    -9629.362   -1249.8086    786.85427     9.232049     9.232049     9.232049    58.077886 
Loop time of 15.7623 on 16 procs for 1000 steps with 1000 atoms

Performance: 5.481 ns/day, 4.378 hours/ns, 63.443 timesteps/s
95.1% CPU use with 16 MPI tasks x no OpenMP threads

MPI task timing breakdown:
Section |  min time  |  avg time  |  max time  |%varavg| %total
---------------------------------------------------------------
Pair    | 2.2934     | 2.428      | 2.6452     |   6.1 | 15.40
Neigh   | 0.77774    | 0.80539    | 0.8713     |   2.5 |  5.11
Comm    | 0.73586    | 1.019      | 1.1819     |  11.5 |  6.47
Output  | 7.3864     | 7.6444     | 11.464     |  35.7 | 48.50
Modify  | 0.037639   | 3.8572     | 4.1153     |  50.2 | 24.47
Other   |            | 0.008296   |            |       |  0.05

Nlocal:    62.5 ave 69 max 59 min
Histogram: 1 6 1 2 1 2 0 0 1 2
Nghost:    1852.88 ave 1879 max 1832 min
Histogram: 2 1 3 2 1 4 0 1 0 2
Neighs:    0 ave 0 max 0 min
Histogram: 16 0 0 0 0 0 0 0 0 0
FullNghs:  18771 ave 20948 max 17686 min
Histogram: 3 5 2 1 1 1 0 0 1 2

Total # of neighbors = 300336
Ave neighs/atom = 300.336
Neighbor list builds = 1000
Dangerous builds not checked
Setting up Verlet run ...
  Unit style    : real
  Current step  : 6000
  Time step     : 1
Per MPI rank memory allocation (min/avg/max) = 4.577 | 4.578 | 4.579 Mbytes
Step Temp E_pair E_mol TotEng Press Volume Lx Ly Lz S/CPU 
    6000    297.95647   -10516.626            0    -9629.362   -1249.8086    786.85427     9.232049     9.232049     9.232049            0 
    6100     290.6108   -10502.478            0    -9637.089   -14390.352    786.64291    9.2312223    9.2312223    9.2312223    67.233648 
    6200    302.40533   -10544.605            0    -9644.094   -7392.6451    785.85913    9.2281554    9.2281554    9.2281554    61.440209 
    6300     293.2232   -10518.159            0   -9644.9904   -817.29152     784.3065    9.2220741    9.2220741    9.2220741     63.73509 
    6400    284.93269   -10493.712            0    -9645.231    13320.973    782.47294    9.2148819    9.2148819    9.2148819    68.890073 
    6500    296.26791   -10525.999            0   -9643.7633    8316.6689    780.79623    9.2082952    9.2082952    9.2082952    46.738402 
    6600    297.42214   -10527.212            0   -9641.5399    8133.8666    779.68482    9.2039241    9.2039241    9.2039241    63.952599 
    6700    297.18064   -10522.361            0   -9637.4075    11306.255    779.26271    9.2022628    9.2022628    9.2022628    70.749731 
    6800    295.93391    -10514.98            0   -9633.7392    14806.405    779.52033    9.2032768    9.2032768    9.2032768    53.701593 
    6900    296.11938   -10511.028            0   -9629.2347   -4055.6261    780.42153     9.206822     9.206822     9.206822    69.447786 
    7000     298.4405   -10512.191            0    -9623.486    9922.3474    781.81947     9.212316     9.212316     9.212316    70.012712 
Loop time of 15.9826 on 16 procs for 1000 steps with 1000 atoms

Performance: 5.406 ns/day, 4.440 hours/ns, 62.568 timesteps/s
95.0% CPU use with 16 MPI tasks x no OpenMP threads

MPI task timing breakdown:
Section |  min time  |  avg time  |  max time  |%varavg| %total
---------------------------------------------------------------
Pair    | 2.1917     | 2.4021     | 2.5611     |   6.9 | 15.03
Neigh   | 0.75108    | 0.79612    | 0.83517    |   2.2 |  4.98
Comm    | 0.87499    | 1.0628     | 1.318      |  11.9 |  6.65
Output  | 7.7135     | 7.9638     | 11.668     |  33.9 | 49.83
Modify  | 0.045339   | 3.7497     | 4.0002     |  49.4 | 23.46
Other   |            | 0.00819    |            |       |  0.05

Nlocal:    62.5 ave 68 max 60 min
Histogram: 5 3 1 2 0 2 0 1 1 1
Nghost:    1863.5 ave 1879 max 1854 min
Histogram: 3 2 2 2 3 1 0 1 1 1
Neighs:    0 ave 0 max 0 min
Histogram: 16 0 0 0 0 0 0 0 0 0
FullNghs:  18877.8 ave 20638 max 17993 min
Histogram: 5 2 2 1 3 0 0 1 1 1

Total # of neighbors = 302044
Ave neighs/atom = 302.044
Neighbor list builds = 1000
Dangerous builds not checked
Setting up Verlet run ...
  Unit style    : real
  Current step  : 7000
  Time step     : 1
Per MPI rank memory allocation (min/avg/max) = 4.577 | 4.578 | 4.579 Mbytes
Step Temp E_pair E_mol TotEng Press Volume Lx Ly Lz S/CPU 
    7000     298.4405   -10512.191            0    -9623.486    9922.3474    781.81947     9.212316     9.212316     9.212316            0 
    7100    297.18084   -10502.943            0   -9617.9891    6729.7498    783.67387    9.2195938    9.2195938    9.2195938    53.618992 
    7200    296.79397   -10495.858            0   -9612.0563   -4773.5337    785.82321    9.2280148    9.2280148    9.2280148    62.792373 
    7300    303.55387   -10511.935            0    -9608.003   -15102.214    788.12854    9.2370299    9.2370299    9.2370299    63.839634 
    7400    307.23272   -10517.247            0   -9602.3608   -788.22249    790.06849    9.2446026    9.2446026    9.2446026    57.863262 
    7500    296.38616   -10479.772            0   -9597.1847   -4744.6213    791.37852    9.2497093    9.2497093    9.2497093    74.033105 
    7600    293.20834   -10466.713            0   -9593.5882   -8724.7674     792.1093    9.2525556    9.2525556    9.2525556     52.55623 
    7700    293.63427   -10464.769            0   -9590.3768   -5466.7976    792.11494    9.2525776    9.2525776    9.2525776    62.800061 
    7800    302.51679   -10488.207            0    -9587.364   -9101.1496    791.16983    9.2488962    9.2488962    9.2488962    72.233666 
    7900    296.23061   -10467.552            0   -9585.4281   -13927.445    789.72677    9.2432696    9.2432696    9.2432696    58.543938 
    8000    293.92954   -10458.105            0   -9582.8333    -4008.661    788.02938    9.2366425    9.2366425    9.2366425    61.775722 
Loop time of 16.3093 on 16 procs for 1000 steps with 1000 atoms

Performance: 5.298 ns/day, 4.530 hours/ns, 61.315 timesteps/s
95.0% CPU use with 16 MPI tasks x no OpenMP threads

MPI task timing breakdown:
Section |  min time  |  avg time  |  max time  |%varavg| %total
---------------------------------------------------------------
Pair    | 2.3234     | 2.452      | 2.6162     |   5.1 | 15.03
Neigh   | 0.7795     | 0.81172    | 0.84869    |   2.0 |  4.98
Comm    | 0.79281    | 0.98065    | 1.1248     |   9.6 |  6.01
Output  | 7.6108     | 7.888      | 11.996     |  37.8 | 48.37
Modify  | 0.061348   | 4.1686     | 4.4455     |  51.9 | 25.56
Other   |            | 0.008321   |            |       |  0.05

Nlocal:    62.5 ave 69 max 55 min
Histogram: 2 0 1 1 0 6 1 3 0 2
Nghost:    1842.19 ave 1853 max 1822 min
Histogram: 1 0 1 1 0 2 3 3 2 3
Neighs:    0 ave 0 max 0 min
Histogram: 16 0 0 0 0 0 0 0 0 0
FullNghs:  18740.5 ave 20506 max 16451 min
Histogram: 2 0 1 1 0 5 1 3 1 2

Total # of neighbors = 299848
Ave neighs/atom = 299.848
Neighbor list builds = 1000
Dangerous builds not checked
Setting up Verlet run ...
  Unit style    : real
  Current step  : 8000
  Time step     : 1
Per MPI rank memory allocation (min/avg/max) = 4.577 | 4.578 | 4.579 Mbytes
Step Temp E_pair E_mol TotEng Press Volume Lx Ly Lz S/CPU 
    8000    293.92954   -10458.105            0   -9582.8333    -4008.661    788.02938    9.2366425    9.2366425    9.2366425            0 
    8100    309.35419   -10504.417            0    -9583.213    5485.4026    786.29332    9.2298547    9.2298547    9.2298547    62.400854 
    8200    302.12082    -10483.91            0   -9584.2455    3906.8556    784.79878    9.2240031    9.2240031    9.2240031    56.604872 
    8300    316.79198   -10529.055            0   -9585.7027    14341.015     783.5359    9.2190527    9.2190527    9.2190527    59.368528 
    8400    306.60353   -10499.846            0   -9586.8333    13783.739    783.31864    9.2182006    9.2182006    9.2182006    54.536628 
    8500    319.29376   -10542.244            0   -9591.4419    4959.7404    784.11061    9.2213062    9.2213062    9.2213062    69.786096 
    8600    305.55485   -10504.043            0   -9594.1528   -6141.7757    785.12983    9.2252999    9.2252999    9.2252999    62.999059 
    8700    303.95761   -10503.642            0   -9598.5085   -1498.2953    786.15699    9.2293212    9.2293212    9.2293212    57.543398 
    8800     312.0202   -10531.102            0   -9601.9596   -852.92645    787.31968    9.2338688    9.2338688    9.2338688    68.464631 
    8900    305.26128   -10512.439            0   -9603.4234   -14767.392     788.4565     9.238311     9.238311     9.238311    54.042697 
    9000     291.1217   -10470.211            0      -9603.3   -25559.471    789.04638    9.2406143    9.2406143    9.2406143    67.012669 
Loop time of 16.4486 on 16 procs for 1000 steps with 1000 atoms

Performance: 5.253 ns/day, 4.569 hours/ns, 60.796 timesteps/s
95.0% CPU use with 16 MPI tasks x no OpenMP threads

MPI task timing breakdown:
Section |  min time  |  avg time  |  max time  |%varavg| %total
---------------------------------------------------------------
Pair    | 2.327      | 2.4253     | 2.5831     |   4.5 | 14.74
Neigh   | 0.77585    | 0.80551    | 0.8537     |   2.1 |  4.90
Comm    | 0.80295    | 1.0087     | 1.1377     |   8.6 |  6.13
Output  | 8.163      | 8.4129     | 12.113     |  32.9 | 51.15
Modify  | 0.087501   | 3.7879     | 4.0377     |  49.1 | 23.03
Other   |            | 0.008286   |            |       |  0.05

Nlocal:    62.5 ave 71 max 57 min
Histogram: 4 0 1 4 2 1 1 2 0 1
Nghost:    1838.06 ave 1859 max 1813 min
Histogram: 1 0 2 1 2 4 2 2 0 2
Neighs:    0 ave 0 max 0 min
Histogram: 16 0 0 0 0 0 0 0 0 0
FullNghs:  18685.6 ave 21296 max 16897 min
Histogram: 4 0 1 3 3 1 2 1 0 1

Total # of neighbors = 298970
Ave neighs/atom = 298.97
Neighbor list builds = 1000
Dangerous builds not checked
Setting up Verlet run ...
  Unit style    : real
  Current step  : 9000
  Time step     : 1
Per MPI rank memory allocation (min/avg/max) = 4.577 | 4.578 | 4.579 Mbytes
Step Temp E_pair E_mol TotEng Press Volume Lx Ly Lz S/CPU 
    9000     291.1217   -10470.211            0      -9603.3   -25559.471    789.04638    9.2406143    9.2406143    9.2406143            0 
    9100    300.21909   -10500.051            0   -9606.0501   -7703.5271    788.51484    9.2385389    9.2385389    9.2385389    65.130713 
    9200    301.84668   -10505.261            0    -9606.413    1306.4265    787.58585    9.2349093    9.2349093    9.2349093    55.538391 
    9300    302.29661   -10507.033            0   -9606.8456   -8605.6152    786.27981    9.2298018    9.2298018    9.2298018    78.385409 
    9400    299.08479   -10497.314            0   -9606.6906    4955.2443    784.65643    9.2234453    9.2234453    9.2234453    62.164913 
    9500     295.8242   -10485.902            0   -9604.9876   -1708.6989     782.8603    9.2164023    9.2164023    9.2164023    75.628837 
    9600    300.56187   -10498.196            0   -9603.1742    8378.5164    780.93215    9.2088295    9.2088295    9.2088295    66.117392 
    9700    306.30033   -10513.765            0   -9601.6552   -4405.9859    779.35903    9.2026419    9.2026419    9.2026419    73.423846 
    9800    304.35114   -10506.927            0   -9600.6208    7193.4479     778.0102    9.1973299    9.1973299    9.1973299    60.588478 
    9900    305.81073    -10508.33            0   -9597.6781    9294.2882    777.24901    9.1943294    9.1943294    9.1943294    63.656452 
   10000     299.9935   -10489.789            0   -9596.4598    5049.2319     777.4137    9.1949787    9.1949787    9.1949787    55.649621 
Loop time of 15.4354 on 16 procs for 1000 steps with 1000 atoms

Performance: 5.598 ns/day, 4.288 hours/ns, 64.786 timesteps/s
95.1% CPU use with 16 MPI tasks x no OpenMP threads

MPI task timing breakdown:
Section |  min time  |  avg time  |  max time  |%varavg| %total
---------------------------------------------------------------
Pair    | 2.3122     | 2.4579     | 2.6517     |   6.0 | 15.92
Neigh   | 0.76975    | 0.81101    | 0.86653    |   2.7 |  5.25
Comm    | 0.75857    | 0.99875    | 1.1868     |  11.7 |  6.47
Output  | 7.4152     | 7.65       | 11.119     |  32.4 | 49.56
Modify  | 0.039579   | 3.5094     | 3.744      |  47.8 | 22.74
Other   |            | 0.008293   |            |       |  0.05

Nlocal:    62.5 ave 70 max 59 min
Histogram: 4 3 1 4 2 0 1 0 0 1
Nghost:    1867.44 ave 1890 max 1849 min
Histogram: 2 1 0 3 5 2 0 2 0 1
Neighs:    0 ave 0 max 0 min
Histogram: 16 0 0 0 0 0 0 0 0 0
FullNghs:  19002 ave 21576 max 17987 min
Histogram: 4 3 1 5 1 0 1 0 0 1

Total # of neighbors = 304032
Ave neighs/atom = 304.032
Neighbor list builds = 1000
Dangerous builds not checked
Setting up Verlet run ...
  Unit style    : real
  Current step  : 10000
  Time step     : 1
Per MPI rank memory allocation (min/avg/max) = 4.577 | 4.578 | 4.579 Mbytes
Step Temp E_pair E_mol TotEng Press Volume Lx Ly Lz S/CPU 
   10000     299.9935   -10489.789            0   -9596.4598    5049.2319     777.4137    9.1949787    9.1949787    9.1949787            0 
   10100    300.01294   -10487.229            0   -9593.8417    12006.078    778.27027    9.1983546    9.1983546    9.1983546    81.429799 
   10200    297.95968   -10479.327            0   -9592.0539   -5815.9536    779.63507    9.2037283    9.2037283    9.2037283    78.765238 
   10300    297.04409   -10473.693            0   -9589.1461    4801.4456     781.1619    9.2097325    9.2097325    9.2097325    53.006234 
   10400    306.05683   -10496.474            0   -9585.0889    2371.9791    782.86346    9.2164147    9.2164147    9.2164147    82.259217 
   10500    299.44676    -10470.85            0   -9579.1486    6384.8721    784.66095    9.2234631    9.2234631    9.2234631    78.165447 
   10600    309.03964   -10493.698            0   -9573.4305    10146.252    786.43745    9.2304186    9.2304186    9.2304186    64.182219 
   10700     293.4142   -10438.884            0   -9565.1463   -13206.528    788.25981    9.2375427    9.2375427    9.2375427    81.825399 
   10800    307.99459   -10475.285            0   -9558.1293   -14524.064    789.66441    9.2430263    9.2430263    9.2430263    70.830823 
   10900     306.8093   -10465.753            0   -9552.1275   -16262.263    790.26536    9.2453704    9.2453704    9.2453704    48.226488 
   11000    309.00299   -10464.578            0   -9544.4196   -16146.055    790.32966    9.2456212    9.2456212    9.2456212    85.186896 
Loop time of 14.3187 on 16 procs for 1000 steps with 1000 atoms

Performance: 6.034 ns/day, 3.977 hours/ns, 69.839 timesteps/s
95.2% CPU use with 16 MPI tasks x no OpenMP threads

MPI task timing breakdown:
Section |  min time  |  avg time  |  max time  |%varavg| %total
---------------------------------------------------------------
Pair    | 2.3586     | 2.4675     | 2.5884     |   4.1 | 17.23
Neigh   | 0.7762     | 0.81264    | 0.85858    |   2.1 |  5.68
Comm    | 0.82668    | 0.99328    | 1.1233     |   8.1 |  6.94
Output  | 5.8083     | 6.0725     | 9.9853     |  41.0 | 42.41
Modify  | 0.051134   | 3.9645     | 4.229      |  50.7 | 27.69
Other   |            | 0.008303   |            |       |  0.06

Nlocal:    62.5 ave 67 max 57 min
Histogram: 1 1 1 2 0 4 1 0 2 4
Nghost:    1844.69 ave 1872 max 1810 min
Histogram: 1 1 1 1 1 2 4 2 2 1
Neighs:    0 ave 0 max 0 min
Histogram: 16 0 0 0 0 0 0 0 0 0
FullNghs:  18660.1 ave 19964 max 16755 min
Histogram: 1 2 0 1 1 3 2 1 0 5

Total # of neighbors = 298562
Ave neighs/atom = 298.562
Neighbor list builds = 1000
Dangerous builds not checked
Setting up Verlet run ...
  Unit style    : real
  Current step  : 11000
  Time step     : 1
Per MPI rank memory allocation (min/avg/max) = 4.577 | 4.578 | 4.579 Mbytes
Step Temp E_pair E_mol TotEng Press Volume Lx Ly Lz S/CPU 
   11000    309.00299   -10464.578            0   -9544.4196   -16146.055    790.32966    9.2456212    9.2456212    9.2456212            0 
   11100    316.49347   -10480.009            0   -9537.5454   -15120.629    789.65046    9.2429718    9.2429718    9.2429718    57.789309 
   11200    302.63975   -10432.575            0   -9531.3653   -14060.524    788.25352    9.2375182    9.2375182    9.2375182    69.864808 
   11300    298.12805    -10415.68            0   -9527.9052    9534.7541    786.29212    9.2298499    9.2298499    9.2298499    68.799349 
   11400    310.52779   -10451.183            0   -9526.4843    6609.5027    784.46846    9.2227088    9.2227088    9.2227088    55.563016 
   11500    302.04816   -10424.185            0   -9524.7368   -330.69948    782.76537    9.2160297    9.2160297    9.2160297     71.57828 
   11600    312.89337   -10458.036            0   -9526.2929    2904.8795     781.4497    9.2108634    9.2108634    9.2108634    69.124026 
   11700     304.6531   -10437.818            0   -9530.6126    12799.689    780.59817    9.2075166    9.2075166    9.2075166    58.894954 
   11800    314.53185   -10474.059            0   -9537.4373   -4486.7757    779.82765    9.2044861    9.2044861    9.2044861    75.616848 
   11900     303.6221   -10450.966            0   -9546.8313    5088.0815    779.17693    9.2019251    9.2019251    9.2019251    82.453089 
   12000    302.22705   -10461.364            0   -9561.3836    3494.5011    779.22264    9.2021051    9.2021051    9.2021051    52.246743 
Loop time of 15.406 on 16 procs for 1000 steps with 1000 atoms

Performance: 5.608 ns/day, 4.279 hours/ns, 64.910 timesteps/s
95.2% CPU use with 16 MPI tasks x no OpenMP threads

MPI task timing breakdown:
Section |  min time  |  avg time  |  max time  |%varavg| %total
---------------------------------------------------------------
Pair    | 2.295      | 2.4638     | 2.5771     |   5.0 | 15.99
Neigh   | 0.77364    | 0.80991    | 0.85746    |   2.2 |  5.26
Comm    | 0.84882    | 1.0096     | 1.2145     |   9.6 |  6.55
Output  | 6.9558     | 7.2147     | 11.049     |  36.9 | 46.83
Modify  | 0.065164   | 3.8997     | 4.1583     |  50.1 | 25.31
Other   |            | 0.008278   |            |       |  0.05

Nlocal:    62.5 ave 68 max 57 min
Histogram: 2 0 2 1 4 1 3 0 1 2
Nghost:    1874.44 ave 1889 max 1860 min
Histogram: 1 3 0 2 1 2 4 1 1 1
Neighs:    0 ave 0 max 0 min
Histogram: 16 0 0 0 0 0 0 0 0 0
FullNghs:  18941.8 ave 20558 max 17443 min
Histogram: 2 1 1 1 4 2 2 0 1 2

Total # of neighbors = 303068
Ave neighs/atom = 303.068
Neighbor list builds = 1000
Dangerous builds not checked
Setting up Verlet run ...
  Unit style    : real
  Current step  : 12000
  Time step     : 1
Per MPI rank memory allocation (min/avg/max) = 4.577 | 4.578 | 4.579 Mbytes
Step Temp E_pair E_mol TotEng Press Volume Lx Ly Lz S/CPU 
   12000    302.22705   -10461.364            0   -9561.3836    3494.5011    779.22264    9.2021051    9.2021051    9.2021051            0 
   12100    296.87755    -10457.64            0   -9573.5893    22789.203    779.91724    9.2048385    9.2048385    9.2048385    79.083593 
   12200    290.96622    -10452.35            0   -9585.9018    12336.449    781.30584    9.2102982    9.2102982    9.2102982    65.578315 
   12300    305.06615   -10502.906            0   -9594.4709   -6711.5324    783.26141    9.2179761    9.2179761    9.2179761    68.276178 
   12400    293.36496   -10474.876            0   -9601.2848   -5337.1912    785.06003    9.2250265    9.2250265    9.2250265    70.909698 
   12500    298.74134   -10494.268            0   -9604.6671   -10369.097    786.47286    9.2305571    9.2305571    9.2305571    51.334243 
   12600    296.22008   -10490.295            0   -9608.2022   -2273.4065    787.17608    9.2333074    9.2333074    9.2333074    83.524108 
   12700    290.59005   -10473.834            0   -9608.5061   -1917.1271    787.37766    9.2340955    9.2340955    9.2340955    78.881145 
   12800    283.91765   -10451.675            0   -9606.2171   -13814.711    787.44513    9.2343593    9.2343593    9.2343593    64.426843 
   12900    291.47641   -10471.877            0   -9603.9104    2076.5118    786.77796    9.2317506    9.2317506    9.2317506    74.207553 
   13000    286.51366   -10452.821            0   -9599.6319    3679.6223    785.56991    9.2270232    9.2270232    9.2270232    79.755153 
Loop time of 14.2308 on 16 procs for 1000 steps with 1000 atoms

Performance: 6.071 ns/day, 3.953 hours/ns, 70.270 timesteps/s
95.3% CPU use with 16 MPI tasks x no OpenMP threads

MPI task timing breakdown:
Section |  min time  |  avg time  |  max time  |%varavg| %total
---------------------------------------------------------------
Pair    | 2.2789     | 2.4734     | 2.6505     |   7.3 | 17.38
Neigh   | 0.77376    | 0.81537    | 0.87275    |   3.1 |  5.73
Comm    | 0.77577    | 0.99619    | 1.2259     |  14.1 |  7.00
Output  | 5.8279     | 6.0828     | 9.8564     |  39.5 | 42.74
Modify  | 0.080907   | 3.8548     | 4.11       |  49.6 | 27.09
Other   |            | 0.008311   |            |       |  0.06

Nlocal:    62.5 ave 68 max 55 min
Histogram: 1 1 0 2 1 3 4 0 2 2
Nghost:    1863.88 ave 1881 max 1843 min
Histogram: 2 0 0 0 4 3 3 1 2 1
Neighs:    0 ave 0 max 0 min
Histogram: 16 0 0 0 0 0 0 0 0 0
FullNghs:  18782.9 ave 20421 max 16725 min
Histogram: 2 0 0 3 1 3 2 1 2 2

Total # of neighbors = 300526
Ave neighs/atom = 300.526
Neighbor list builds = 1000
Dangerous builds not checked
Setting up Verlet run ...
  Unit style    : real
  Current step  : 13000
  Time step     : 1
Per MPI rank memory allocation (min/avg/max) = 4.577 | 4.578 | 4.579 Mbytes
Step Temp E_pair E_mol TotEng Press Volume Lx Ly Lz S/CPU 
   13000    286.51366   -10452.821            0   -9599.6319    3679.6223    785.56991    9.2270232    9.2270232    9.2270232            0 
   13100    310.85872   -10522.082            0   -9596.3975   -2423.2513    783.80514    9.2201086    9.2201086    9.2201086    57.267768 
   13200    300.40029   -10483.462            0   -9588.9209    9376.6537    781.62451    9.2115502    9.2115502    9.2115502    76.330747 
   13300    302.90058    -10486.05            0   -9584.0635     11596.11    780.05985    9.2053995    9.2053995    9.2053995    62.231756 
   13400    306.76281   -10493.767            0   -9580.2796    1884.2324    779.05569    9.2014478    9.2014478    9.2014478     56.80549 
   13500     293.2931   -10450.931            0   -9577.5542    4870.0402    778.45136    9.1990679    9.1990679    9.1990679    70.131084 
   13600    302.07787   -10476.475            0   -9576.9392    7414.4174    778.46362    9.1991162    9.1991162    9.1991162    64.832513 
   13700     290.9728   -10442.318            0   -9575.8509    9080.5873    779.06904    9.2015004    9.2015004    9.2015004    72.912842 
   13800    302.62541   -10477.502            0   -9576.3354    10931.294    780.25083    9.2061507    9.2061507    9.2061507    64.955617 
   13900    310.83191   -10503.322            0   -9577.7176    -3920.644    781.78908    9.2121966    9.2121966    9.2121966    60.308081 
   14000    315.39856   -10521.178            0   -9581.9754   -5387.8421    783.16149    9.2175841    9.2175841    9.2175841     77.74959 
Loop time of 15.2473 on 16 procs for 1000 steps with 1000 atoms

Performance: 5.667 ns/day, 4.235 hours/ns, 65.586 timesteps/s
95.1% CPU use with 16 MPI tasks x no OpenMP threads

MPI task timing breakdown:
Section |  min time  |  avg time  |  max time  |%varavg| %total
---------------------------------------------------------------
Pair    | 2.3253     | 2.4579     | 2.7059     |   5.9 | 16.12
Neigh   | 0.76951    | 0.80885    | 0.87395    |   2.8 |  5.30
Comm    | 0.70486    | 1.0178     | 1.1901     |  11.5 |  6.68
Output  | 7.1099     | 7.3588     | 10.882     |  33.5 | 48.26
Modify  | 0.071693   | 3.5957     | 3.8447     |  48.0 | 23.58
Other   |            | 0.00828    |            |       |  0.05

Nlocal:    62.5 ave 66 max 60 min
Histogram: 3 3 0 3 0 1 3 0 2 1
Nghost:    1864.75 ave 1883 max 1849 min
Histogram: 1 4 0 1 1 3 4 0 1 1
Neighs:    0 ave 0 max 0 min
Histogram: 16 0 0 0 0 0 0 0 0 0
FullNghs:  18847.2 ave 20150 max 17940 min
Histogram: 2 4 0 3 0 3 1 1 1 1

Total # of neighbors = 301556
Ave neighs/atom = 301.556
Neighbor list builds = 1000
Dangerous builds not checked
Setting up Verlet run ...
  Unit style    : real
  Current step  : 14000
  Time step     : 1
Per MPI rank memory allocation (min/avg/max) = 4.577 | 4.578 | 4.579 Mbytes
Step Temp E_pair E_mol TotEng Press Volume Lx Ly Lz S/CPU 
   14000    315.39856   -10521.178            0   -9581.9754   -5387.8421    783.16149    9.2175841    9.2175841    9.2175841            0 
   14100    295.38599   -10466.202            0   -9586.5929   -1704.2067    784.41811    9.2225115    9.2225115    9.2225115    57.824409 
   14200    302.19299   -10496.667            0   -9596.7875   -8073.7358    785.59436    9.2271189    9.2271189    9.2271189    71.062682 
   14300    296.45402   -10493.215            0   -9610.4255   -2333.4011    786.20054    9.2294916    9.2294916    9.2294916    69.166047 
   14400    310.47632   -10550.929            0   -9626.3833   -8387.5694    786.39717     9.230261     9.230261     9.230261    60.898507 
   14500    300.25777    -10531.29            0   -9637.1734   -4165.0177    786.48605    9.2306087    9.2306087    9.2306087    62.650145 
   14600    298.27141   -10535.832            0   -9647.6304     1665.309    786.36605    9.2301392    9.2301392    9.2301392    69.478134 
   14700    292.26613   -10525.219            0   -9654.9004   -1615.9716    786.30989    9.2299195    9.2299195    9.2299195    55.258233 
   14800     303.1865   -10564.018            0   -9661.1805    1347.9866    786.34441    9.2300546    9.2300546    9.2300546    76.470579 
   14900    282.48432   -10506.814            0    -9665.624   -11632.579     786.4748    9.2305647    9.2305647    9.2305647    74.130615 
   15000    296.12894   -10551.766            0   -9669.9447   -6541.4861    785.80297    9.2279356    9.2279356    9.2279356    63.011588 
Loop time of 15.3133 on 16 procs for 1000 steps with 1000 atoms

Performance: 5.642 ns/day, 4.254 hours/ns, 65.303 timesteps/s
95.2% CPU use with 16 MPI tasks x no OpenMP threads

MPI task timing breakdown:
Section |  min time  |  avg time  |  max time  |%varavg| %total
---------------------------------------------------------------
Pair    | 2.2705     | 2.4453     | 2.6639     |   6.6 | 15.97
Neigh   | 0.77108    | 0.81067    | 0.86867    |   3.0 |  5.29
Comm    | 0.73499    | 1.0108     | 1.2254     |  12.8 |  6.60
Output  | 7.1086     | 7.3539     | 10.985     |  34.6 | 48.02
Modify  | 0.052355   | 3.6842     | 3.9365     |  48.9 | 24.06
Other   |            | 0.008318   |            |       |  0.05

Nlocal:    62.5 ave 68 max 59 min
Histogram: 1 1 4 4 1 3 0 1 0 1
Nghost:    1852.12 ave 1877 max 1821 min
Histogram: 1 0 1 2 4 1 2 2 1 2
Neighs:    0 ave 0 max 0 min
Histogram: 16 0 0 0 0 0 0 0 0 0
FullNghs:  18768.6 ave 20505 max 17668 min
Histogram: 1 1 7 1 1 1 2 0 1 1

Total # of neighbors = 300298
Ave neighs/atom = 300.298
Neighbor list builds = 1000
Dangerous builds not checked
Setting up Verlet run ...
  Unit style    : real
  Current step  : 15000
  Time step     : 1
Per MPI rank memory allocation (min/avg/max) = 4.577 | 4.578 | 4.579 Mbytes
Step Temp E_pair E_mol TotEng Press Volume Lx Ly Lz S/CPU 
   15000    296.12894   -10551.766            0   -9669.9447   -6541.4861    785.80297    9.2279356    9.2279356    9.2279356            0 
   15100    288.95773   -10532.473            0   -9672.0065   -3686.0752    784.43026    9.2225591    9.2225591    9.2225591    78.922642 
   15200    285.06496   -10519.444            0    -9670.569    6039.4502    782.61173    9.2154267    9.2154267    9.2154267     71.23221 
   15300     299.2746   -10560.296            0    -9669.107    7338.1203    780.42129    9.2068211    9.2068211    9.2068211    72.414295 
   15400    307.97496   -10582.842            0   -9665.7449    21951.361    778.62263    9.1997426    9.1997426    9.1997426    90.302443 
   15500    303.33003   -10564.004            0   -9660.7386    19678.684    777.71462     9.196165     9.196165     9.196165    78.245373 
   15600    300.81566   -10551.911            0   -9656.1334   -5931.6528    777.51206    9.1953665    9.1953665    9.1953665    62.383492 
   15700    304.47929   -10556.533            0   -9649.8455     21804.41    777.80084    9.1965048    9.1965048    9.1965048    81.431118 
   15800    302.57574    -10545.38            0   -9644.3616    10864.207    779.06611    9.2014889    9.2014889    9.2014889    64.880575 
   15900    301.36485   -10533.587            0   -9636.1735   -6817.8126    781.02367    9.2091893    9.2091893    9.2091893    62.551684 
   16000    298.92206   -10516.201            0   -9626.0619   -9908.8821    782.94314    9.2167274    9.2167274    9.2167274    67.352714 
Loop time of 13.893 on 16 procs for 1000 steps with 1000 atoms

Performance: 6.219 ns/day, 3.859 hours/ns, 71.979 timesteps/s
95.3% CPU use with 16 MPI tasks x no OpenMP threads

MPI task timing breakdown:
Section |  min time  |  avg time  |  max time  |%varavg| %total
---------------------------------------------------------------
Pair    | 2.3517     | 2.4962     | 2.6722     |   6.0 | 17.97
Neigh   | 0.77701    | 0.81895    | 0.85491    |   2.5 |  5.89
Comm    | 0.76535    | 0.97087    | 1.1528     |  11.6 |  6.99
Output  | 6.2703     | 6.4776     | 9.5377     |  31.0 | 46.62
Modify  | 0.059836   | 3.1211     | 3.3284     |  44.7 | 22.46
Other   |            | 0.008389   |            |       |  0.06

Nlocal:    62.5 ave 66 max 59 min
Histogram: 1 4 0 0 2 4 0 2 1 2
Nghost:    1862.31 ave 1876 max 1849 min
Histogram: 2 2 1 1 1 2 2 3 0 2
Neighs:    0 ave 0 max 0 min
Histogram: 16 0 0 0 0 0 0 0 0 0
FullNghs:  18852 ave 19894 max 17774 min
Histogram: 2 2 1 0 2 1 4 1 0 3

Total # of neighbors = 301632
Ave neighs/atom = 301.632
Neighbor list builds = 1000
Dangerous builds not checked
Setting up Verlet run ...
  Unit style    : real
  Current step  : 16000
  Time step     : 1
Per MPI rank memory allocation (min/avg/max) = 4.577 | 4.578 | 4.579 Mbytes
Step Temp E_pair E_mol TotEng Press Volume Lx Ly Lz S/CPU 
   16000    298.92206   -10516.201            0   -9626.0619   -9908.8821    782.94314    9.2167274    9.2167274    9.2167274            0 
   16100    297.63201    -10501.32            0   -9615.0229   -10219.943    784.78178    9.2239365    9.2239365    9.2239365    51.045876 
   16200    296.67059   -10484.913            0   -9601.4788   -8402.0077     786.3402    9.2300381    9.2300381    9.2300381    67.221316 
   16300     306.2472   -10500.064            0   -9588.1118    7570.9125     787.4227    9.2342716    9.2342716    9.2342716    72.236017 
   16400    302.80757   -10478.777            0   -9577.0673   -8548.1372    788.34421    9.2378724    9.2378724    9.2378724    58.500374 
   16500    289.22202   -10430.088            0   -9568.8341    1256.7585    788.87392     9.239941     9.239941     9.239941    59.699073 
   16600    300.09193   -10458.194            0   -9564.5714   -1655.9535    789.18396    9.2411514    9.2411514    9.2411514    71.838774 
   16700    306.15807   -10473.107            0   -9561.4206   -7043.6294    789.14899    9.2410149    9.2410149    9.2410149    55.120917 
   16800     307.4764   -10475.742            0   -9560.1299   -15162.911    788.72609    9.2393638    9.2393638    9.2393638    87.941651 
   16900    305.19015   -10469.856            0   -9561.0517    15755.324    787.91838    9.2362088    9.2362088    9.2362088    67.345827 
   17000    309.76677   -10484.707            0   -9562.2744    19521.188    787.08528    9.2329524    9.2329524    9.2329524    72.966987 
Loop time of 15.4141 on 16 procs for 1000 steps with 1000 atoms

Performance: 5.605 ns/day, 4.282 hours/ns, 64.875 timesteps/s
95.1% CPU use with 16 MPI tasks x no OpenMP threads

MPI task timing breakdown:
Section |  min time  |  avg time  |  max time  |%varavg| %total
---------------------------------------------------------------
Pair    | 2.3194     | 2.3981     | 2.5428     |   3.8 | 15.56
Neigh   | 0.78078    | 0.80089    | 0.85001    |   2.2 |  5.20
Comm    | 0.82301    | 1.0188     | 1.1049     |   7.5 |  6.61
Output  | 6.9323     | 7.1987     | 11.146     |  38.0 | 46.70
Modify  | 0.043523   | 3.9894     | 4.2557     |  51.0 | 25.88
Other   |            | 0.008233   |            |       |  0.05

Nlocal:    62.5 ave 69 max 55 min
Histogram: 1 0 2 1 2 4 0 5 0 1
Nghost:    1851.88 ave 1867 max 1831 min
Histogram: 1 2 0 0 3 1 3 2 2 2
Neighs:    0 ave 0 max 0 min
Histogram: 16 0 0 0 0 0 0 0 0 0
FullNghs:  18768 ave 20915 max 16477 min
Histogram: 1 0 2 2 3 2 2 3 0 1

Total # of neighbors = 300288
Ave neighs/atom = 300.288
Neighbor list builds = 1000
Dangerous builds not checked
Setting up Verlet run ...
  Unit style    : real
  Current step  : 17000
  Time step     : 1
Per MPI rank memory allocation (min/avg/max) = 4.577 | 4.578 | 4.579 Mbytes
Step Temp E_pair E_mol TotEng Press Volume Lx Ly Lz S/CPU 
   17000    309.76677   -10484.707            0   -9562.2744    19521.188    787.08528    9.2329524    9.2329524    9.2329524            0 
   17100    300.09458   -10456.508            0   -9562.8776    15382.058     786.7452    9.2316225    9.2316225    9.2316225    71.369814 
   17200    319.06805   -10515.316            0   -9565.1857   -1655.8513    787.41097    9.2342257    9.2342257    9.2342257    51.517353 
   17300     295.7924   -10446.898            0   -9566.0788    3896.9988    788.30323    9.2377124    9.2377124    9.2377124    66.829922 
   17400    312.74387   -10500.945            0   -9569.6467    10681.015    789.16052    9.2410599    9.2410599    9.2410599    62.210073 
   17500    299.73961   -10466.202            0   -9573.6289     -3095.67    790.12765    9.2448334    9.2448334    9.2448334    62.858723 
   17600     301.6606   -10475.439            0   -9577.1448    -2687.418    790.66337    9.2469223    9.2469223    9.2469223    73.165399 
   17700    297.70145   -10466.884            0   -9580.3796   -5119.3634    790.86426    9.2477053    9.2477053    9.2477053    80.811511 
   17800    299.68489   -10477.415            0   -9585.0042   -5295.0235    790.58276     9.246608     9.246608     9.246608    54.991581 
   17900    300.04391   -10483.089            0   -9589.6093   -6025.6557    789.84039    9.2437129    9.2437129    9.2437129    81.049162 
   18000      297.185   -10478.881            0   -9593.9152   -4794.9474     788.4996    9.2384794    9.2384794    9.2384794    75.939605 
Loop time of 15.0103 on 16 procs for 1000 steps with 1000 atoms

Performance: 5.756 ns/day, 4.170 hours/ns, 66.621 timesteps/s
95.2% CPU use with 16 MPI tasks x no OpenMP threads

MPI task timing breakdown:
Section |  min time  |  avg time  |  max time  |%varavg| %total
---------------------------------------------------------------
Pair    | 2.3737     | 2.4693     | 2.6896     |   5.0 | 16.45
Neigh   | 0.784      | 0.82024    | 0.89626    |   2.8 |  5.46
Comm    | 0.65659    | 0.95366    | 1.0853     |  10.5 |  6.35
Output  | 6.7885     | 7.033      | 10.651     |  35.2 | 46.85
Modify  | 0.10789    | 3.7257     | 3.9702     |  48.4 | 24.82
Other   |            | 0.008338   |            |       |  0.06

Nlocal:    62.5 ave 67 max 56 min
Histogram: 2 1 0 0 1 1 3 5 1 2
Nghost:    1840.94 ave 1870 max 1813 min
Histogram: 1 2 2 3 0 1 1 3 2 1
Neighs:    0 ave 0 max 0 min
Histogram: 16 0 0 0 0 0 0 0 0 0
FullNghs:  18703 ave 19997 max 16680 min
Histogram: 2 1 0 0 1 1 4 4 1 2

Total # of neighbors = 299248
Ave neighs/atom = 299.248
Neighbor list builds = 1000
Dangerous builds not checked
Setting up Verlet run ...
  Unit style    : real
  Current step  : 18000
  Time step     : 1
Per MPI rank memory allocation (min/avg/max) = 4.577 | 4.578 | 4.579 Mbytes
Step Temp E_pair E_mol TotEng Press Volume Lx Ly Lz S/CPU 
   18000      297.185   -10478.881            0   -9593.9152   -4794.9474     788.4996    9.2384794    9.2384794    9.2384794            0 
   18100    303.04066   -10501.753            0   -9599.3497    2759.0384    786.46819    9.2305388    9.2305388    9.2305388      59.0369 
   18200    287.30672   -10459.195            0   -9603.6449   -5135.1515    784.19471    9.2216359    9.2216359    9.2216359    76.689261 
   18300    295.98582   -10490.151            0   -9608.7557    4532.7457    781.55341    9.2112709    9.2112709    9.2112709    68.899695 
   18400    300.70531   -10510.205            0   -9614.7562    17746.524    779.45634    9.2030249    9.2030249    9.2030249    53.040911 
   18500    289.77686   -10484.708            0   -9621.8025    13354.746    777.97494    9.1971909    9.1971909    9.1971909    65.864027 
   18600    305.01605   -10541.684            0   -9633.3981     15083.65    776.82637    9.1926626    9.1926626    9.1926626     54.19653 
   18700    296.71947   -10530.808            0    -9647.228    5316.8188    776.25578    9.1904113    9.1904113    9.1904113    69.108367 
   18800    285.03528   -10512.441            0   -9663.6544   -8830.7441    776.30818    9.1906181    9.1906181    9.1906181      60.8398 
   18900    289.99915   -10543.193            0   -9679.6247    17031.648    776.55397     9.191588     9.191588     9.191588    57.273742 
   19000    300.70502   -10587.464            0   -9692.0158    18333.897    777.65543    9.1959317    9.1959317    9.1959317    57.426804 
Loop time of 16.276 on 16 procs for 1000 steps with 1000 atoms

Performance: 5.308 ns/day, 4.521 hours/ns, 61.440 timesteps/s
95.1% CPU use with 16 MPI tasks x no OpenMP threads

MPI task timing breakdown:
Section |  min time  |  avg time  |  max time  |%varavg| %total
---------------------------------------------------------------
Pair    | 2.322      | 2.4529     | 2.5649     |   5.0 | 15.07
Neigh   | 0.76843    | 0.80602    | 0.84285    |   2.3 |  4.95
Comm    | 0.90532    | 1.0523     | 1.2209     |   9.5 |  6.47
Output  | 7.7221     | 7.9859     | 11.89      |  35.7 | 49.07
Modify  | 0.066543   | 3.9706     | 4.2343     |  50.6 | 24.40
Other   |            | 0.008273   |            |       |  0.05

Nlocal:    62.5 ave 70 max 57 min
Histogram: 1 0 3 4 4 1 2 0 0 1
Nghost:    1866.38 ave 1906 max 1842 min
Histogram: 3 2 1 3 1 4 1 0 0 1
Neighs:    0 ave 0 max 0 min
Histogram: 16 0 0 0 0 0 0 0 0 0
FullNghs:  18986.2 ave 21513 max 17176 min
Histogram: 1 0 3 2 6 3 0 0 0 1

Total # of neighbors = 303780
Ave neighs/atom = 303.78
Neighbor list builds = 1000
Dangerous builds not checked
Setting up Verlet run ...
  Unit style    : real
  Current step  : 19000
  Time step     : 1
Per MPI rank memory allocation (min/avg/max) = 4.577 | 4.578 | 4.579 Mbytes
Step Temp E_pair E_mol TotEng Press Volume Lx Ly Lz S/CPU 
   19000    300.70502   -10587.464            0   -9692.0158    18333.897    777.65543    9.1959317    9.1959317    9.1959317            0 
   19100    298.08502   -10587.752            0   -9700.1062    1375.3269    779.48277    9.2031289    9.2031289    9.2031289    62.127609 
   19200    294.48365   -10580.631            0   -9703.7092   -11005.671     781.4041    9.2106843    9.2106843    9.2106843    72.055604 
   19300    281.45637   -10541.901            0   -9703.7718   -17142.949    782.95909    9.2167899    9.2167899    9.2167899     56.73414 
   19400    292.05568   -10572.978            0   -9703.2863   -18054.224    784.07856    9.2211806    9.2211806    9.2211806    52.897126 
   19500    290.74652   -10566.017            0   -9700.2233    582.48695    784.87942     9.224319     9.224319     9.224319    54.323744 
   19600    286.15263   -10547.109            0    -9694.995   -29302.448    785.20293    9.2255862    9.2255862    9.2255862    79.884964 
   19700    285.32982   -10537.589            0   -9687.9253   -8615.4844     784.3243    9.2221438    9.2221438    9.2221438     57.86913 
   19800    305.09385   -10588.315            0   -9679.7972    1234.7976    783.03342    9.2170816    9.2170816    9.2170816    59.425882 
   19900    296.00923   -10551.937            0   -9670.4716    3851.3456    781.37849    9.2105837    9.2105837    9.2105837    55.147859 
   20000    294.75925   -10539.204            0   -9661.4613   -2706.5421    779.52373    9.2032901    9.2032901    9.2032901    49.928972 
Loop time of 16.9701 on 16 procs for 1000 steps with 1000 atoms

Performance: 5.091 ns/day, 4.714 hours/ns, 58.927 timesteps/s
95.0% CPU use with 16 MPI tasks x no OpenMP threads

MPI task timing breakdown:
Section |  min time  |  avg time  |  max time  |%varavg| %total
---------------------------------------------------------------
Pair    | 2.3334     | 2.4563     | 2.6939     |   6.2 | 14.47
Neigh   | 0.77272    | 0.80826    | 0.87113    |   2.9 |  4.76
Comm    | 0.6743     | 0.97452    | 1.1333     |  12.4 |  5.74
Output  | 8.3076     | 8.583      | 12.665     |  36.0 | 50.58
Modify  | 0.0567     | 4.1397     | 4.4152     |  51.8 | 24.39
Other   |            | 0.008275   |            |       |  0.05

Nlocal:    62.5 ave 68 max 58 min
Histogram: 1 2 2 1 3 1 1 2 2 1
Nghost:    1871 ave 1886 max 1856 min
Histogram: 1 2 2 1 0 5 0 2 1 2
Neighs:    0 ave 0 max 0 min
Histogram: 16 0 0 0 0 0 0 0 0 0
FullNghs:  18929.6 ave 20713 max 17595 min
Histogram: 2 2 2 3 1 1 2 2 0 1

Total # of neighbors = 302874
Ave neighs/atom = 302.874
Neighbor list builds = 1000
Dangerous builds not checked
Setting up Verlet run ...
  Unit style    : real
  Current step  : 20000
  Time step     : 1
Per MPI rank memory allocation (min/avg/max) = 4.577 | 4.578 | 4.579 Mbytes
Step Temp E_pair E_mol TotEng Press Volume Lx Ly Lz S/CPU 
   20000    294.75925   -10539.204            0   -9661.4613   -2706.5421    779.52373    9.2032901    9.2032901    9.2032901            0 
   20100    294.67572     -10529.9            0   -9652.4065    14594.201    778.12292     9.197774     9.197774     9.197774    75.152368 
   20200     298.8408   -10536.593            0   -9646.6961    3889.5608    777.71529    9.1961676    9.1961676    9.1961676    70.408456 
   20300    300.22844   -10535.833            0   -9641.8037    16857.392    777.69311    9.1960802    9.1960802    9.1960802     53.79897 
   20400    299.62774   -10531.296            0   -9639.0554    15580.091    777.97607    9.1971954    9.1971954    9.1971954    53.301646 
   20500    306.02563   -10547.901            0   -9636.6089    22211.997    778.78082    9.2003655    9.2003655    9.2003655    55.645175 
   20600    304.99838    -10542.11            0   -9633.8764    9631.0099    780.61262    9.2075734    9.2075734    9.2075734    66.558825 
   20700    291.61439   -10497.825            0   -9629.4467    12631.226    782.97459    9.2168508    9.2168508    9.2168508    67.037401 
   20800    297.87232   -10513.585            0   -9626.5719    265.78224    785.41268    9.2264076    9.2264076    9.2264076    66.853514 
   20900    298.38322   -10511.341            0   -9622.8063   -13275.615    787.68192    9.2352848    9.2352848    9.2352848    76.319937 
   21000    299.04206   -10509.589            0   -9619.0925   -7844.9221    789.46185    9.2422359    9.2422359    9.2422359    69.865511 
Loop time of 15.5145 on 16 procs for 1000 steps with 1000 atoms

Performance: 5.569 ns/day, 4.310 hours/ns, 64.456 timesteps/s
95.1% CPU use with 16 MPI tasks x no OpenMP threads

MPI task timing breakdown:
Section |  min time  |  avg time  |  max time  |%varavg| %total
---------------------------------------------------------------
Pair    | 2.314      | 2.4121     | 2.5486     |   4.8 | 15.55
Neigh   | 0.75841    | 0.79683    | 0.83702    |   2.2 |  5.14
Comm    | 0.87863    | 1.0547     | 1.1859     |   9.0 |  6.80
Output  | 7.0766     | 7.3355     | 11.17      |  36.6 | 47.28
Modify  | 0.071872   | 3.907      | 4.1657     |  50.1 | 25.18
Other   |            | 0.008213   |            |       |  0.05

Nlocal:    62.5 ave 67 max 56 min
Histogram: 1 1 0 2 2 1 3 2 1 3
Nghost:    1850.5 ave 1877 max 1827 min
Histogram: 2 0 2 1 4 1 2 3 0 1
Neighs:    0 ave 0 max 0 min
Histogram: 16 0 0 0 0 0 0 0 0 0
FullNghs:  18687.4 ave 20214 max 16676 min
Histogram: 1 1 1 1 3 1 4 1 0 3

Total # of neighbors = 298998
Ave neighs/atom = 298.998
Neighbor list builds = 1000
Dangerous builds not checked
Setting up Verlet run ...
  Unit style    : real
  Current step  : 21000
  Time step     : 1
Per MPI rank memory allocation (min/avg/max) = 4.577 | 4.578 | 4.579 Mbytes
Step Temp E_pair E_mol TotEng Press Volume Lx Ly Lz S/CPU 
   21000    299.04206   -10509.589            0   -9619.0925   -7844.9221    789.46185    9.2422359    9.2422359    9.2422359            0 
   21100     298.7634   -10504.189            0   -9614.5231   -21817.168    790.81837    9.2475265    9.2475265    9.2475265    74.778929 
   21200    301.50705   -10508.085            0   -9610.2483   -14885.756    791.29848    9.2493975    9.2493975    9.2493975    72.353241 
   21300    297.83804   -10492.698            0   -9605.7867   -22897.947    790.74339    9.2472342    9.2472342    9.2472342    54.351428 
   21400    290.34705   -10464.559            0   -9599.9548   -12218.331    789.01828    9.2405046    9.2405046    9.2405046    75.791553 
   21500    306.51818   -10507.444            0   -9594.6852   -18737.338    786.36949    9.2301527    9.2301527    9.2301527    69.896746 
   21600    293.36838   -10462.625            0   -9589.0239    5197.2495    783.00698    9.2169779    9.2169779    9.2169779    59.510134 
   21700    305.50284   -10493.153            0   -9583.4175    4588.7385    779.69087    9.2039479    9.2039479    9.2039479     76.26601 
   21800    311.62414   -10503.175            0   -9575.2114    9829.8886     776.3703    9.1908632    9.1908632    9.1908632    82.776422 
   21900    314.78654     -10504.7            0   -9567.3193    23924.251    773.74031    9.1804733    9.1804733    9.1804733    59.352989 
   22000    309.16278   -10478.492            0   -9557.8581    23902.698    772.38609    9.1751143    9.1751143    9.1751143     77.56896 
Loop time of 14.483 on 16 procs for 1000 steps with 1000 atoms

Performance: 5.966 ns/day, 4.023 hours/ns, 69.046 timesteps/s
95.2% CPU use with 16 MPI tasks x no OpenMP threads

MPI task timing breakdown:
Section |  min time  |  avg time  |  max time  |%varavg| %total
---------------------------------------------------------------
Pair    | 2.3841     | 2.4637     | 2.6353     |   5.1 | 17.01
Neigh   | 0.78141    | 0.8137     | 0.86856    |   2.7 |  5.62
Comm    | 0.76984    | 0.99549    | 1.0956     |  10.2 |  6.87
Output  | 6.4488     | 6.6837     | 10.157     |  34.7 | 46.15
Modify  | 0.043391   | 3.5182     | 3.7575     |  47.8 | 24.29
Other   |            | 0.008289   |            |       |  0.06

Nlocal:    62.5 ave 67 max 57 min
Histogram: 1 1 1 1 0 2 2 6 1 1
Nghost:    1868.62 ave 1887 max 1840 min
Histogram: 1 1 1 0 2 0 3 5 1 2
Neighs:    0 ave 0 max 0 min
Histogram: 16 0 0 0 0 0 0 0 0 0
FullNghs:  19105.2 ave 20652 max 17224 min
Histogram: 1 1 1 1 1 2 6 2 0 1

Total # of neighbors = 305684
Ave neighs/atom = 305.684
Neighbor list builds = 1000
Dangerous builds not checked
Setting up Verlet run ...
  Unit style    : real
  Current step  : 22000
  Time step     : 1
Per MPI rank memory allocation (min/avg/max) = 4.577 | 4.578 | 4.579 Mbytes
Step Temp E_pair E_mol TotEng Press Volume Lx Ly Lz S/CPU 
   22000    309.16278   -10478.492            0   -9557.8581    23902.698    772.38609    9.1751143    9.1751143    9.1751143            0 
   22100    317.32358   -10493.305            0   -9548.3691    15622.828    772.67385    9.1762536    9.1762536    9.1762536    78.420948 
   22200    308.73057   -10459.642            0   -9540.2955    13966.345    774.30728    9.1827152    9.1827152    9.1827152    55.126937 
   22300    319.11282   -10484.277            0    -9534.013    11363.396    777.04058    9.1935075    9.1935075    9.1935075     65.48772 
   22400    315.07091   -10466.923            0   -9528.6957    14734.701    780.25304    9.2061594    9.2061594    9.2061594    63.410785 
   22500    306.39248   -10437.297            0   -9524.9128    18381.421    784.13871    9.2214164    9.2214164    9.2214164    71.827795 
   22600    307.32472   -10440.151            0   -9524.9901     6321.177    788.46678    9.2383512    9.2383512    9.2383512    84.088668 
   22700    301.97699   -10425.959            0   -9526.7229   -6307.5054    792.79675    9.2552315    9.2552315    9.2552315    55.066688 
   22800    309.19517   -10451.325            0   -9530.5943   -2907.4124    796.46159    9.2694709    9.2694709    9.2694709    71.862317 
   22900    311.44324   -10465.159            0   -9537.7337    -13439.16    799.27325    9.2803658    9.2803658    9.2803658    71.867628 
   23000    299.97842   -10439.498            0   -9546.2138   -23363.421    801.13587    9.2875691    9.2875691    9.2875691    57.919697 
Loop time of 15.1002 on 16 procs for 1000 steps with 1000 atoms

Performance: 5.722 ns/day, 4.194 hours/ns, 66.225 timesteps/s
95.2% CPU use with 16 MPI tasks x no OpenMP threads

MPI task timing breakdown:
Section |  min time  |  avg time  |  max time  |%varavg| %total
---------------------------------------------------------------
Pair    | 2.3087     | 2.4295     | 2.5634     |   4.3 | 16.09
Neigh   | 0.75722    | 0.80177    | 0.8536     |   2.4 |  5.31
Comm    | 0.79883    | 0.98574    | 1.1514     |   8.7 |  6.53
Output  | 6.9416     | 7.1877     | 10.827     |  35.0 | 47.60
Modify  | 0.049155   | 3.6867     | 3.9326     |  48.9 | 24.41
Other   |            | 0.008742   |            |       |  0.06

Nlocal:    62.5 ave 67 max 58 min
Histogram: 2 0 0 3 3 3 1 3 0 1
Nghost:    1838.94 ave 1864 max 1806 min
Histogram: 1 1 1 1 2 1 2 4 2 1
Neighs:    0 ave 0 max 0 min
Histogram: 16 0 0 0 0 0 0 0 0 0
FullNghs:  18396.9 ave 19880 max 16910 min
Histogram: 2 0 1 2 3 3 1 2 1 1

Total # of neighbors = 294350
Ave neighs/atom = 294.35
Neighbor list builds = 1000
Dangerous builds not checked
Setting up Verlet run ...
  Unit style    : real
  Current step  : 23000
  Time step     : 1
Per MPI rank memory allocation (min/avg/max) = 4.577 | 4.578 | 4.579 Mbytes
Step Temp E_pair E_mol TotEng Press Volume Lx Ly Lz S/CPU 
   23000    299.97842   -10439.498            0   -9546.2138   -23363.421    801.13587    9.2875691    9.2875691    9.2875691            0 
   23100     308.6886   -10476.767            0   -9557.5452   -18539.735    801.46343    9.2888348    9.2888348    9.2888348    82.881527 
   23200    299.37581   -10459.975            0   -9568.4846   -10683.527     800.4939    9.2850877    9.2850877    9.2850877    65.658096 
   23300    294.03209   -10454.136            0    -9578.559   -9930.3345    798.09264    9.2757941    9.2757941    9.2757941    61.955532 
   23400    306.16839   -10500.323            0   -9588.6063   -4210.7403     794.6536    9.2624516    9.2624516    9.2624516    68.874776 
   23500    292.49976   -10465.832            0   -9594.8174    -3956.943    790.57049    9.2465602    9.2465602    9.2465602    56.990967 
   23600    300.61102   -10495.476            0   -9600.3075   -3910.7061    786.23167    9.2296134    9.2296134    9.2296134     66.93593 
   23700    313.24989   -10536.911            0   -9604.1067    14119.456    782.25548    9.2140282    9.2140282    9.2140282    62.738745 
   23800    305.63009   -10517.247            0    -9607.133    4215.6484    779.18401     9.201953     9.201953     9.201953    55.275952 
   23900     296.1262   -10491.351            0   -9609.5375    10793.058    777.27786    9.1944432    9.1944432    9.1944432    64.327648 
   24000    298.05903   -10499.995            0   -9612.4264    21186.132    775.97764    9.1893135    9.1893135    9.1893135     74.66041 
Loop time of 15.3412 on 16 procs for 1000 steps with 1000 atoms

Performance: 5.632 ns/day, 4.261 hours/ns, 65.184 timesteps/s
95.1% CPU use with 16 MPI tasks x no OpenMP threads

MPI task timing breakdown:
Section |  min time  |  avg time  |  max time  |%varavg| %total
---------------------------------------------------------------
Pair    | 2.2317     | 2.3984     | 2.7122     |   7.9 | 15.63
Neigh   | 0.76499    | 0.80329    | 0.88037    |   3.4 |  5.24
Comm    | 0.64208    | 1.0323     | 1.2366     |  14.9 |  6.73
Output  | 7.3869     | 7.6182     | 11.038     |  32.0 | 49.66
Modify  | 0.05962    | 3.4807     | 3.7125     |  47.3 | 22.69
Other   |            | 0.008266   |            |       |  0.05

Nlocal:    62.5 ave 69 max 54 min
Histogram: 1 0 2 0 2 1 5 3 1 1
Nghost:    1888.94 ave 1917 max 1869 min
Histogram: 3 1 1 1 4 3 1 1 0 1
Neighs:    0 ave 0 max 0 min
Histogram: 16 0 0 0 0 0 0 0 0 0
FullNghs:  19025 ave 20910 max 16384 min
Histogram: 1 0 2 0 2 3 3 3 1 1

Total # of neighbors = 304400
Ave neighs/atom = 304.4
Neighbor list builds = 1000
Dangerous builds not checked
Setting up Verlet run ...
  Unit style    : real
  Current step  : 24000
  Time step     : 1
Per MPI rank memory allocation (min/avg/max) = 4.577 | 4.578 | 4.579 Mbytes
Step Temp E_pair E_mol TotEng Press Volume Lx Ly Lz S/CPU 
   24000    298.05903   -10499.995            0   -9612.4264    21186.132    775.97764    9.1893135    9.1893135    9.1893135            0 
   24100    292.89198   -10487.127            0   -9614.9451    10429.982    775.46959    9.1873076    9.1873076    9.1873076    59.000836 
   24200    300.65008   -10513.509            0   -9618.2244   -204.21623    775.62518     9.187922     9.187922     9.187922    66.474356 
   24300    294.19634   -10495.898            0   -9619.8316    999.94767    776.16514    9.1900536    9.1900536    9.1900536    60.526046 
   24400    301.74888   -10520.578            0   -9622.0217    9544.5192    776.94035    9.1931122    9.1931122    9.1931122    62.598616 
   24500    291.37223   -10492.122            0   -9624.4654    14960.676    778.10591     9.197707     9.197707     9.197707    61.124465 
   24600    297.62526   -10514.028            0    -9627.751    6076.1871    779.91132    9.2048152    9.2048152    9.2048152    58.003881 
   24700    291.06947    -10497.29            0   -9630.5353    6775.5964    782.47229    9.2148794    9.2148794    9.2148794     66.29456 
   24800    290.59244   -10497.542            0   -9632.2073   -3647.0298    785.12007    9.2252617    9.2252617    9.2252617    78.807886 
   24900    295.87704   -10516.396            0   -9635.3247   -1041.8751    787.43416    9.2343164    9.2343164    9.2343164    62.023095 
   25000    291.78185   -10508.418            0   -9639.5414   -10050.747    789.21475    9.2412715    9.2412715    9.2412715    74.647751 
Loop time of 15.5382 on 16 procs for 1000 steps with 1000 atoms

Performance: 5.560 ns/day, 4.316 hours/ns, 64.358 timesteps/s
95.1% CPU use with 16 MPI tasks x no OpenMP threads

MPI task timing breakdown:
Section |  min time  |  avg time  |  max time  |%varavg| %total
---------------------------------------------------------------
Pair    | 2.3809     | 2.4966     | 2.712      |   5.5 | 16.07
Neigh   | 0.79611    | 0.81772    | 0.8852     |   2.3 |  5.26
Comm    | 0.72328    | 1.0093     | 1.1406     |  10.5 |  6.50
Output  | 7.416      | 7.6525     | 11.15      |  32.6 | 49.25
Modify  | 0.059494   | 3.5538     | 3.79       |  47.9 | 22.87
Other   |            | 0.008321   |            |       |  0.05

Nlocal:    62.5 ave 65 max 58 min
Histogram: 1 0 1 0 1 3 0 6 3 1
Nghost:    1855.12 ave 1874 max 1833 min
Histogram: 1 1 2 1 1 4 1 1 3 1
Neighs:    0 ave 0 max 0 min
Histogram: 16 0 0 0 0 0 0 0 0 0
FullNghs:  18696.1 ave 19555 max 17305 min
Histogram: 1 0 1 1 1 2 2 5 1 2

Total # of neighbors = 299138
Ave neighs/atom = 299.138
Neighbor list builds = 1000
Dangerous builds not checked
Setting up Verlet run ...
  Unit style    : real
  Current step  : 25000
  Time step     : 1
Per MPI rank memory allocation (min/avg/max) = 4.577 | 4.578 | 4.579 Mbytes
Step Temp E_pair E_mol TotEng Press Volume Lx Ly Lz S/CPU 
   25000    291.78185   -10508.418            0   -9639.5414   -10050.747    789.21475    9.2412715    9.2412715    9.2412715            0 
   25100    304.25609    -10552.14            0   -9646.1172   -3541.6594    790.27095    9.2453922    9.2453922    9.2453922    65.837851 
   25200    283.50023   -10495.627            0   -9651.4116   -2129.2538    790.59137    9.2466416    9.2466416    9.2466416    66.280207 
   25300    284.23133    -10502.95            0    -9656.558   -10696.402    789.92067     9.244026     9.244026     9.244026    69.574855 
   25400     288.9659    -10519.18            0   -9658.6886   -19887.171     788.1887     9.237265     9.237265     9.237265    68.781045 
   25500    300.21149   -10553.985            0   -9660.0065   -7313.1554    785.35158    9.2261683    9.2261683    9.2261683    55.296661 
   25600    297.06264    -10543.96            0   -9659.3586    940.34884    781.98925    9.2129828    9.2129828    9.2129828    78.406869 
   25700     298.8485   -10545.345            0   -9655.4252    6043.3397     778.8203     9.200521     9.200521     9.200521    58.434201 
   25800    301.60426   -10549.187            0   -9651.0614   -412.86653     776.2255    9.1902918    9.1902918    9.1902918    79.510073 
   25900    295.15928    -10523.34            0   -9644.4059    344.93312     774.1159    9.1819586    9.1819586    9.1819586     69.05409 
   26000    303.36931    -10540.68            0   -9637.2979    24313.072    772.57173    9.1758493    9.1758493    9.1758493    55.925714 
Loop time of 15.2079 on 16 procs for 1000 steps with 1000 atoms

Performance: 5.681 ns/day, 4.224 hours/ns, 65.755 timesteps/s
95.2% CPU use with 16 MPI tasks x no OpenMP threads

MPI task timing breakdown:
Section |  min time  |  avg time  |  max time  |%varavg| %total
---------------------------------------------------------------
Pair    | 2.3411     | 2.4941     | 2.7323     |   5.2 | 16.40
Neigh   | 0.79595    | 0.82317    | 0.88686    |   2.5 |  5.41
Comm    | 0.65385    | 0.95548    | 1.1357     |  10.6 |  6.28
Output  | 6.9465     | 7.1946     | 10.866     |  35.3 | 47.31
Modify  | 0.059762   | 3.732      | 3.9798     |  49.1 | 24.54
Other   |            | 0.008672   |            |       |  0.06

Nlocal:    62.5 ave 68 max 55 min
Histogram: 1 0 0 0 6 2 4 0 1 2
Nghost:    1885.31 ave 1904 max 1862 min
Histogram: 2 2 2 1 0 0 1 2 3 3
Neighs:    0 ave 0 max 0 min
Histogram: 16 0 0 0 0 0 0 0 0 0
FullNghs:  19124 ave 20947 max 16820 min
Histogram: 1 0 0 0 7 2 1 2 1 2

Total # of neighbors = 305984
Ave neighs/atom = 305.984
Neighbor list builds = 1000
Dangerous builds not checked
Setting up Verlet run ...
  Unit style    : real
  Current step  : 26000
  Time step     : 1
Per MPI rank memory allocation (min/avg/max) = 4.577 | 4.578 | 4.579 Mbytes
Step Temp E_pair E_mol TotEng Press Volume Lx Ly Lz S/CPU 
   26000    303.36931    -10540.68            0   -9637.2979    24313.072    772.57173    9.1758493    9.1758493    9.1758493            0 
   26100    302.80164   -10533.592            0      -9631.9    19695.558    772.18462    9.1743164    9.1743164    9.1743164    76.157499 
   26200    301.63797   -10524.028            0   -9625.8014    13003.743    772.97408    9.1774419    9.1774419    9.1774419    62.150925 
   26300    293.91919   -10494.003            0   -9618.7621    15091.226    774.51654    9.1835423    9.1835423    9.1835423    58.531378 
   26400    308.35036   -10532.313            0   -9614.0982   -1352.5211    776.65987    9.1920058    9.1920058    9.1920058    79.800405 
   26500     293.1443   -10479.069            0   -9606.1355    3636.3187    779.09324    9.2015957    9.2015957    9.2015957    56.999361 
   26600    293.82267   -10474.364            0   -9599.4105    10488.845    781.54512    9.2112383    9.2112383    9.2112383    74.305154 
   26700    302.14286   -10493.382            0   -9593.6517   -6114.8277    784.25645    9.2218779    9.2218779    9.2218779    68.493845 
   26800    302.57898   -10487.383            0   -9586.3546   -15074.102    786.52278    9.2307524    9.2307524    9.2307524    58.687157 
   26900    310.41264   -10504.356            0   -9580.0003   -5492.1015    787.77214    9.2356374    9.2356374    9.2356374    77.235316 
   27000    316.54731   -10516.588            0   -9573.9645   -7646.7687    788.29636    9.2376855    9.2376855    9.2376855     63.38927 
Loop time of 15.0201 on 16 procs for 1000 steps with 1000 atoms

Performance: 5.752 ns/day, 4.172 hours/ns, 66.577 timesteps/s
95.3% CPU use with 16 MPI tasks x no OpenMP threads

MPI task timing breakdown:
Section |  min time  |  avg time  |  max time  |%varavg| %total
---------------------------------------------------------------
Pair    | 2.3139     | 2.4647     | 2.6919     |   6.0 | 16.41
Neigh   | 0.77602    | 0.80876    | 0.87919    |   2.7 |  5.38
Comm    | 0.71412    | 1.0141     | 1.1975     |  11.8 |  6.75
Output  | 7.1861     | 7.4064     | 10.654     |  30.8 | 49.31
Modify  | 0.07277    | 3.3179     | 3.5381     |  46.0 | 22.09
Other   |            | 0.008304   |            |       |  0.06

Nlocal:    62.5 ave 69 max 56 min
Histogram: 1 3 2 1 0 2 2 2 0 3
Nghost:    1852.19 ave 1868 max 1831 min
Histogram: 2 0 1 1 1 3 2 3 1 2
Neighs:    0 ave 0 max 0 min
Histogram: 16 0 0 0 0 0 0 0 0 0
FullNghs:  18728.4 ave 20965 max 16935 min
Histogram: 3 4 0 0 2 1 2 1 2 1

Total # of neighbors = 299654
Ave neighs/atom = 299.654
Neighbor list builds = 1000
Dangerous builds not checked
Setting up Verlet run ...
  Unit style    : real
  Current step  : 27000
  Time step     : 1
Per MPI rank memory allocation (min/avg/max) = 4.577 | 4.578 | 4.579 Mbytes
Step Temp E_pair E_mol TotEng Press Volume Lx Ly Lz S/CPU 
   27000    316.54731   -10516.588            0   -9573.9645   -7646.7687    788.29636    9.2376855    9.2376855    9.2376855            0 
   27100    305.11706   -10476.685            0   -9568.0989   -17364.376    788.01769    9.2365969    9.2365969    9.2365969    66.011479 
   27200    306.58017   -10476.874            0   -9563.9306    1520.6019    787.03925    9.2327724    9.2327724    9.2327724    81.107991 
   27300    300.09862   -10454.693            0   -9561.0503   -2735.4331    785.90084    9.2283187    9.2283187    9.2283187     59.81392 
   27400    311.06201    -10485.12            0   -9558.8308    5181.2311    784.54173    9.2229959    9.2229959    9.2229959    63.086415 
   27500    302.02072    -10455.87            0   -9556.5035    17450.725    783.19205     9.217704     9.217704     9.217704    65.659577 
   27600    307.86313   -10472.122            0   -9555.3585    18997.496    782.35482    9.2144182    9.2144182    9.2144182     56.62296 
   27700    304.44553   -10463.362            0   -9556.7754    8678.2785    782.21986    9.2138884    9.2138884    9.2138884    61.835579 
   27800    306.48608   -10472.099            0   -9559.4354   -7151.9437    782.51494    9.2150468    9.2150468    9.2150468     55.56373 
   27900    304.09384   -10472.887            0   -9567.3477    -9307.624    783.14079    9.2175029    9.2175029    9.2175029    53.246445 
   28000    303.62086   -10482.548            0   -9578.4168   -6628.5462    783.38276    9.2184521    9.2184521    9.2184521    72.152312 
Loop time of 15.9748 on 16 procs for 1000 steps with 1000 atoms

Performance: 5.409 ns/day, 4.437 hours/ns, 62.598 timesteps/s
[...]
 1291700    293.69515   -11224.068            0   -10349.494   -2066.7464    743.98989    9.0612688    9.0612688    9.0612688    51.010955 
 1291800    307.25205   -11264.758            0   -10349.814   -605.44392    743.73145    9.0602194    9.0602194    9.0602194    71.076541 
 1291900    304.78334   -11257.281            0   -10349.689     2722.454    743.51031    9.0593214    9.0593214    9.0593214    69.940431 
 1292000    291.47086   -11216.595            0   -10348.645   -20970.957    743.35219    9.0586791    9.0586791    9.0586791    50.349209 
 1292100    292.63337   -11222.363            0   -10350.951   -11747.961    742.69291    9.0560003    9.0560003    9.0560003    66.725102 
 1292200    311.52651   -11280.354            0   -10352.681   -9664.8165    741.49048    9.0511103    9.0511103    9.0511103    60.940807 
 1292300     299.5924   -11246.907            0   -10354.772    11820.876    739.92209    9.0447242    9.0447242    9.0447242    62.003017 
 1292400    299.59053   -11251.577            0   -10359.447    11795.607    739.03736    9.0411179    9.0411179    9.0411179     68.37938 
 1292500    300.93135   -11261.685            0   -10365.562    18857.413    739.23746    9.0419338    9.0419338    9.0419338    50.420592 
 1292600    286.25317   -11226.301            0   -10373.888    16729.968    740.54367    9.0472563    9.0472563    9.0472563    80.075195 
 1292700    296.58967   -11269.058            0   -10385.864    549.27704    742.75604    9.0562569    9.0562569    9.0562569    74.875554 
 1292800    300.43993    -11291.34            0   -10396.681   -10138.286     744.7579    9.0643856    9.0643856    9.0643856    77.744087 
 1292900     292.8703   -11279.596            0   -10407.478   -18998.482    746.03501    9.0695639    9.0695639    9.0695639    70.057732 
 1293000    295.51033   -11298.107            0   -10418.128   -22423.087    746.40127    9.0710478    9.0710478    9.0710478    57.952887 
 1293100    297.24457   -11310.557            0   -10425.413   -12487.156     745.6565    9.0680297    9.0680297    9.0680297    66.904287 
 1293200    288.07622   -11288.718            0   -10430.876   -10078.299    743.88713    9.0608515    9.0608515    9.0608515    80.662497 
 1293300    292.39089   -11303.944            0   -10433.254   -8325.8734    741.43726    9.0508938    9.0508938    9.0508938    58.560044 
 1293400    293.19999   -11307.289            0   -10434.189   -2645.9615    738.94057    9.0407232    9.0407232    9.0407232    59.228111 
 1293500    295.97443   -11314.675            0   -10433.314    9319.3426    737.24033    9.0337839    9.0337839    9.0337839    60.917837 
 1293600    293.50055   -11302.874            0   -10428.879    11670.779    736.78879    9.0319392    9.0319392    9.0319392    64.566284 
 1293700     287.0092   -11276.369            0   -10421.704     12502.57    737.42444    9.0345358    9.0345358    9.0345358    83.834798 
 1293800    301.82586   -11313.363            0   -10414.577    9536.9601    739.00901    9.0410023    9.0410023    9.0410023    54.195308 
 1293900    299.57103   -11294.557            0   -10402.486   -5010.6885    741.31658    9.0504027    9.0504027    9.0504027    76.021835 
 1294000    297.82337   -11271.337            0    -10384.47   -3837.7687     743.7668     9.060363     9.060363     9.060363    61.673915 
 1294100    289.76047   -11229.184            0   -10366.327   -11217.337    745.58273    9.0677307    9.0677307    9.0677307    60.860531 
 1294200    308.93165   -11272.207            0   -10352.261   -23691.286    746.47138    9.0713318    9.0713318    9.0713318    75.697966 
 1294300    301.61589   -11241.755            0   -10343.594   -24528.016    746.37938    9.0709592    9.0709592    9.0709592    55.302227 
 1294400    294.44101   -11217.283            0   -10340.488   -13936.173    745.42377    9.0670862    9.0670862    9.0670862    67.113739 
 1294500    301.28298   -11235.791            0   -10338.622   -7886.5606    743.75218    9.0603036    9.0603036    9.0603036    66.536026 
 1294600      309.568   -11261.604            0   -10339.763    1102.6673    741.72046     9.052046     9.052046     9.052046    58.236774 
 1294700    307.54153   -11256.267            0   -10340.461   -1161.6304    739.90359    9.0446489    9.0446489    9.0446489    67.692058 
 1294800    296.00462   -11223.324            0   -10341.873    15589.758    738.48697    9.0388729    9.0388729    9.0388729    65.110607 
 1294900    314.55246   -11283.541            0   -10346.857   -2538.1559    737.71564    9.0357248    9.0357248    9.0357248    59.463665 
 1295000    323.73801   -11317.243            0   -10353.206    12897.879    737.48234    9.0347722    9.0347722    9.0347722    69.476949 
 1295100    297.73312    -11246.23            0   -10359.632    10880.433    738.17034    9.0375809    9.0375809    9.0375809    67.863061 
 1295200    310.07577    -11291.15            0   -10367.797    2082.5788    739.71174    9.0438671    9.0438671    9.0438671    63.745236 
 1295300     300.5438   -11272.419            0   -10377.451    10323.371     741.7107    9.0520063    9.0520063    9.0520063    68.574173 
 1295400    305.22286   -11297.055            0   -10388.153   -12881.147    743.67106    9.0599742    9.0599742    9.0599742    46.220389 
 1295500    298.21481   -11285.235            0   -10397.202   -9148.6637    745.38625    9.0669341    9.0669341    9.0669341    67.664634 
 1295600    303.55958   -11310.252            0   -10406.304   -9010.5635    746.31062    9.0706806    9.0706806    9.0706806    53.418769 
 1295700    287.18215   -11265.863            0   -10410.684   -19315.182    746.06159    9.0696716    9.0696716    9.0696716    79.033972 
 1295800    287.37563   -11271.016            0    -10415.26    999.40258    744.79669     9.064543     9.064543     9.064543    77.347654 
 1295900    299.48859   -11310.711            0   -10418.885   -9766.0168    743.27932    9.0583831    9.0583831    9.0583831    62.049189 
 1296000    305.23261   -11329.546            0   -10420.616     2523.696    741.77562    9.0522704    9.0522704    9.0522704    85.568042 
 1296100    297.70297   -11305.856            0   -10419.347   -9216.2903    740.64313    9.0476613    9.0476613    9.0476613     60.40018 
 1296200    292.82037   -11288.263            0   -10416.294    3101.4862    739.71421    9.0438771    9.0438771    9.0438771    77.045276 
 1296300    306.46749   -11326.487            0   -10413.879    3609.1149    739.31061     9.042232     9.042232     9.042232    64.713148 
 1296400      305.154   -11317.557            0    -10408.86     6863.356    739.14737    9.0415665    9.0415665    9.0415665    55.010719 
 1296500    294.67184   -11279.425            0   -10401.943    2287.9349    739.48795     9.042955     9.042955     9.042955    68.436362 
 1296600    304.09281   -11299.222            0   -10393.685    9556.3952    740.34773    9.0464583    9.0464583    9.0464583    71.373421 
 1296700    298.23359   -11271.441            0   -10383.352    17123.923    741.74582    9.0521492    9.0521492    9.0521492    61.667409 
 1296800    297.29656   -11256.321            0   -10371.023    2858.9645    743.67707    9.0599986    9.0599986    9.0599986    70.997961 
 1296900    303.05983   -11260.672            0   -10358.211    -16155.29    745.65002    9.0680035    9.0680035    9.0680035     61.89757 
 1297000    299.30141   -11237.298            0   -10346.029   -13559.391    746.81064    9.0727059    9.0727059    9.0727059    71.664054 
 1297100    311.11497   -11263.089            0   -10336.641   -15325.658    746.96272    9.0733217    9.0733217    9.0733217    66.199415 
 1297200    299.22535   -11221.356            0   -10330.314   -7508.8487    745.92744    9.0691279    9.0691279    9.0691279    53.452632 
 1297300    312.55122   -11257.595            0   -10326.871   -965.42118    744.61504     9.063806     9.063806     9.063806    78.446406 
 1297400    300.93757   -11221.265            0   -10325.124    9022.3492    743.38985    9.0588321    9.0588321    9.0588321    63.741242 
 1297500     306.8521   -11241.583            0    -10327.83    5777.7901     742.2951    9.0543831    9.0543831    9.0543831    75.661933 
 1297600    312.92903   -11262.937            0   -10331.088     7219.259    741.22786    9.0500417    9.0500417    9.0500417     79.99417 
 1297700    305.55437   -11242.722            0   -10332.834    2344.3632    740.64339    9.0476623    9.0476623    9.0476623    53.362768 
 1297800    306.61616    -11249.49            0    -10336.44    5089.5358    740.21007    9.0458975    9.0458975    9.0458975    67.851349 
 1297900    307.47989   -11256.943            0   -10341.321    14834.254    740.13351    9.0455856    9.0455856    9.0455856    66.513067 
 1298000    303.44207   -11249.217            0   -10345.618     14532.37    740.69417    9.0478691    9.0478691    9.0478691    63.212653 
 1298100    302.90548   -11253.613            0   -10351.612    11198.294    741.83332    9.0525051    9.0525051    9.0525051    67.690723 
 1298200    309.27796   -11279.487            0    -10358.51    4180.0865    743.33824    9.0586224    9.0586224    9.0586224    65.140924 
 1298300    299.33524   -11255.706            0   -10364.337   -17668.474    744.70869    9.0641859    9.0641859    9.0641859    80.057303 
 1298400     300.9987   -11265.296            0   -10368.973   -2061.2991    745.15291    9.0659879    9.0659879    9.0659879    81.187551 
 1298500     299.7257   -11267.578            0   -10375.046   -11167.461    744.84613    9.0647436    9.0647436    9.0647436    57.421588 
 1298600    291.78669   -11248.021            0    -10379.13   -13751.814    743.72066    9.0601756    9.0601756    9.0601756    77.792871 
 1298700    297.82902    -11268.81            0   -10381.926   -1821.4701    741.96778     9.053052     9.053052     9.053052    85.415763 
 1298800     304.6879   -11293.676            0   -10386.368   -6208.1804     739.9598    9.0448779    9.0448779    9.0448779    57.182381 
 1298900     301.2954   -11286.931            0   -10389.725    14433.408    738.08378    9.0372276    9.0372276    9.0372276    73.231228 
 1299000    287.88068   -11248.732            0   -10391.472    9750.6056    736.71362     9.031632     9.031632     9.031632    63.090304 
 1299100    301.81972    -11294.48            0   -10395.713    19384.625    736.11654    9.0291914    9.0291914    9.0291914    67.177972 
 1299200    293.63076   -11271.913            0   -10397.531    22605.707    736.60971    9.0312073    9.0312073    9.0312073    71.274848 
 1299300    300.45682   -11296.225            0   -10401.516    -548.7695    738.19677    9.0376887    9.0376887    9.0376887    63.566571 
 1299400    283.94396   -11248.966            0   -10403.429   -4303.3517    740.43538    9.0468152    9.0468152    9.0468152    58.783818 
 1299500    293.41588   -11280.251            0   -10406.508   -2552.9055    742.80035    9.0564369    9.0564369    9.0564369     58.61575 
 1299600    298.53756   -11299.327            0   -10410.333   -15096.691    744.89946    9.0649599    9.0649599    9.0649599    68.138102 
 1299700    297.30006   -11298.553            0   -10413.244   -24139.969    745.73709    9.0683564    9.0683564    9.0683564    73.266447 
 1299800    298.09475   -11307.529            0   -10419.854   -8886.6223    744.74991    9.0643532    9.0643532    9.0643532    55.013541 
 1299900    317.81007   -11377.208            0   -10430.824   -20121.799    742.44114    9.0549768    9.0549768    9.0549768     68.38792 
 1300000    300.11191   -11333.757            0   -10440.075   -2137.4909    739.54062    9.0431696    9.0431696    9.0431696    62.736461 
 1300100    292.32084   -11321.278            0   -10450.797    25265.443    736.64519    9.0313523    9.0313523    9.0313523     61.51635 
 1300200    295.12235   -11339.461            0   -10460.637    24077.146    734.36136    9.0220093    9.0220093    9.0220093    67.066684 
 1300300    296.39157   -11350.659            0   -10468.056    10120.391    733.53605    9.0186283    9.0186283    9.0186283    54.583288 
 1300400    295.82172   -11355.487            0    -10474.58    26433.924    733.90296    9.0201317    9.0201317    9.0201317    65.865203 
 1300500    292.04569   -11348.836            0   -10479.174    17854.054    735.55395    9.0268906    9.0268906    9.0268906    48.118855 
 1300600    299.21601   -11374.886            0   -10483.872   -6250.3796    738.04523    9.0370703    9.0370703    9.0370703    60.531435 
 1300700    287.78771   -11340.895            0   -10483.912   -1570.1751    740.56882    9.0473587    9.0473587    9.0473587    68.931774 
 1300800    282.30067   -11322.239            0   -10481.595   -25072.579    742.72054    9.0561126    9.0561126    9.0561126    55.459381 
 1300900    286.15305   -11328.267            0   -10476.152   -15405.568    743.79885    9.0604931    9.0604931    9.0604931    62.848408 
 1301000    294.76333   -11345.996            0   -10468.242   -21394.892    743.68079    9.0600137    9.0600137    9.0600137     58.87726 
 1301100    288.98254   -11316.703            0   -10456.163   -11235.673    742.50181    9.0552235    9.0552235    9.0552235    73.789512 
 1301200    293.32326   -11315.962            0   -10442.496   -8471.4143    740.59314    9.0474577    9.0474577    9.0474577    62.766421 
 1301300    297.44247   -11314.686            0   -10428.954    6444.8637    738.85705    9.0403825    9.0403825    9.0403825    57.161212 
 1301400    301.57588   -11317.385            0   -10419.344    22896.162    737.60906    9.0352897    9.0352897    9.0352897    63.688944 
 1301500    302.75074   -11313.049            0   -10411.509    19820.616    737.33556    9.0341728    9.0341728    9.0341728      52.0966 
 1301600    291.12038    -11271.61            0   -10404.703   -1510.1378    737.76425    9.0359233    9.0359233    9.0359233    67.852572 
 1301700    291.07144   -11265.728            0   -10398.967    1871.2852     738.3074    9.0381402    9.0381402    9.0381402    60.625967 
 1301800    298.81919   -11285.426            0   -10395.593   -3176.0427    738.80027    9.0401509    9.0401509    9.0401509    55.226535 
 1301900      307.375   -11307.147            0   -10391.837    393.97833    739.54297    9.0431792    9.0431792    9.0431792    77.137392 
 1302000    293.77439    -11261.29            0    -10386.48    8798.9054    740.84253    9.0484731    9.0484731    9.0484731    71.553661 
 1302100    303.59321   -11287.346            0   -10383.297    993.29341    742.34633    9.0545914    9.0545914    9.0545914    77.366559 
 1302200    303.36042   -11282.152            0   -10378.796   -2675.2576    743.87448    9.0608002    9.0608002    9.0608002    75.016621 
 1302300    293.09046   -11245.263            0    -10372.49   -9019.9422    745.26731    9.0664518    9.0664518    9.0664518    56.912381 
 1302400    299.40449   -11260.235            0    -10368.66   -3929.2705    745.98146    9.0693469    9.0693469    9.0693469    75.127327 
 1302500      301.974   -11262.304            0   -10363.077   -4855.7867    745.79655    9.0685974    9.0685974    9.0685974    81.067444 
 1302600    315.59118   -11299.069            0   -10359.293    -17826.13    744.74712    9.0643419    9.0643419    9.0643419    47.090625 
 1302700     309.0093   -11272.731            0   -10352.554    16081.683     742.9709      9.05713      9.05713      9.05713    67.035937 
 1302800    315.89154   -11288.631            0    -10347.96    7545.3312    741.45848    9.0509801    9.0509801    9.0509801    54.274198 
 1302900    299.61413   -11233.644            0   -10341.444    11706.249    740.40134    9.0466766    9.0466766    9.0466766    65.164984 
 1303000    308.27571   -11254.078            0   -10336.086    8064.2014    739.76235    9.0440733    9.0440733    9.0440733     82.20312 
 1303100    304.31476   -11237.719            0   -10331.522    10416.641    739.74283    9.0439938    9.0439938    9.0439938    62.095987 
 1303200    299.60253   -11219.841            0   -10327.676    10302.084    740.40966    9.0467105    9.0467105    9.0467105    68.981583 
 1303300    312.94176   -11257.237            0    -10325.35    322.58129    741.75519    9.0521873    9.0521873    9.0521873    66.331871 
 1303400    309.12549   -11241.928            0   -10321.405   -10340.947    743.29111     9.058431     9.058431     9.058431    58.876297 
 1303500    319.48722   -11269.387            0   -10318.009   -18600.632     744.4472    9.0631249    9.0631249    9.0631249     68.84487 
 1303600    304.92286   -11220.773            0   -10312.765   -5660.7847    744.84047    9.0647206    9.0647206    9.0647206    56.306151 
 1303700    299.10102   -11197.269            0   -10306.597   -18907.879    744.86503    9.0648202    9.0648202    9.0648202    75.709413 
 1303800    309.27429   -11222.859            0   -10301.893    6492.2875    744.17269    9.0620108    9.0620108    9.0620108    57.006387 
 1303900    321.21462   -11253.953            0    -10297.43    6097.2348    743.29558    9.0584491    9.0584491    9.0584491    60.173787 
 1304000    310.53625   -11218.579            0   -10293.855    4776.5668    742.58224    9.0555504    9.0555504    9.0555504    71.113978 
 1304100    302.21663   -11195.637            0   -10295.688     5841.686    742.36588    9.0546708    9.0546708    9.0546708    52.235099 
 1304200    303.20691   -11204.001            0   -10301.102   -2427.5048    742.67777    9.0559387    9.0559387    9.0559387    67.306393 
 1304300    291.54653   -11176.911            0   -10308.735    10456.666    743.54257    9.0594524    9.0594524    9.0594524    52.006179 
 1304400     308.9583   -11242.536            0   -10322.511   -9518.3836    744.79326    9.0645291    9.0645291    9.0645291    61.324778 
 1304500     296.2154   -11216.821            0   -10334.742   -5963.8032    746.32243    9.0707284    9.0707284    9.0707284    63.113632 
 1304600    297.35811   -11233.318            0   -10347.836   -20209.615    747.81803    9.0767835    9.0767835    9.0767835    49.747148 
 1304700    297.27586   -11243.904            0   -10358.668   -21519.106    748.67577    9.0802525    9.0802525    9.0802525    58.967053 
 1304800    295.04473   -11244.569            0   -10365.976   -8596.0633    748.56403    9.0798007    9.0798007    9.0798007     45.07768 
 1304900     291.7729    -11241.64            0    -10372.79   -15533.991    747.59115    9.0758655    9.0758655    9.0758655    66.169965 
 1305000    284.32962   -11223.887            0   -10377.202   -16138.546    745.54963    9.0675965    9.0675965    9.0675965     60.72193 
Loop time of 1554.44 on 16 procs for 100000 steps with 1000 atoms

Performance: 5.558 ns/day, 4.318 hours/ns, 64.332 timesteps/s
95.1% CPU use with 16 MPI tasks x no OpenMP threads

MPI task timing breakdown:
Section |  min time  |  avg time  |  max time  |%varavg| %total
---------------------------------------------------------------
Pair    | 199.69     | 212.56     | 261.46     |  93.0 | 13.67
Neigh   | 69.295     | 73.23      | 87.144     |  46.6 |  4.71
Comm    | 68.516     | 131.42     | 146.7      | 152.5 |  8.45
Output  | 758.35     | 782.07     | 1133.1     | 324.1 | 50.31
Modify  | 3.3497     | 354.38     | 378.1      | 481.5 | 22.80
Other   |            | 0.7811     |            |       |  0.05

Nlocal:    62.5 ave 67 max 51 min
Histogram: 1 0 0 0 0 2 4 1 5 3
Nghost:    1912.88 ave 1946 max 1886 min
Histogram: 2 1 2 1 3 3 2 0 1 1
Neighs:    0 ave 0 max 0 min
Histogram: 16 0 0 0 0 0 0 0 0 0
FullNghs:  19772.2 ave 21242 max 15826 min
Histogram: 1 0 0 0 0 1 5 2 4 3

Total # of neighbors = 316356
Ave neighs/atom = 316.356
Neighbor list builds = 100000
Dangerous builds not checked
Total wall time: 5:43:10
