LAMMPS (16 Mar 2018)
Reading data file ...
  orthogonal box = (-4.71904 -4.71904 -4.71904) to (4.71904 4.71904 4.71904)
  2 by 2 by 4 MPI processor grid
  reading atoms ...
  1000 atoms
Reading potential file /home/fs01/ajm529/lammps-16Mar18/potentials/sw_potentials/AG/eps2.23.sw with DATE: 2008-01-29
Neighbor list info ...
  update every 1 steps, delay 0 steps, check no
  max neighbors/atom: 2000, page size: 100000
  master list distance cutoff = 3.836
  ghost atom cutoff = 3.836
  binsize = 1.918, bins = 5 5 5
  1 neighbor lists, perpetual/occasional/extra = 1 0 0
  (1) pair sw, perpetual
      attributes: full, newton on
      pair build: full/bin/atomonly
      stencil: full/bin/3d
      bin: standard
Setting up Verlet run ...
  Unit style    : real
  Current step  : 0
  Time step     : 1
Per MPI rank memory allocation (min/avg/max) = 3.518 | 3.519 | 3.521 Mbytes
Step Temp E_pair E_mol TotEng Press Volume Lx Ly Lz S/CPU 
       0          300   -10132.339            0   -9238.9905   -41100.133    840.72006    9.4380832    9.4380832    9.4380832            0 
     100    322.16334   -10202.179            0   -9242.8314   -40871.851     839.1287    9.4321245    9.4321245    9.4321245    45.657195 
     200    311.88451   -10182.836            0    -9254.097    -31401.95    834.44994    9.4145615    9.4145615    9.4145615    42.537833 
     300    325.07597   -10242.114            0   -9274.0933   -18404.422    826.79658    9.3856904    9.3856904    9.3856904    35.560075 
     400    323.34371   -10259.682            0   -9296.8194   -13946.467    817.26113     9.349469     9.349469     9.349469    54.593927 
     500    331.71481   -10305.155            0   -9317.3653    -11892.73    807.47805     9.312013     9.312013     9.312013    54.829516 
     600    316.80762   -10275.578            0   -9332.1788    183.02423    798.51064    9.2774133    9.2774133    9.2774133    31.294296 
     700    321.04863   -10300.759            0   -9344.7313    6488.7256    791.16001    9.2488579    9.2488579    9.2488579    37.819569 
     800    333.71972   -10355.478            0    -9361.718     14684.43    786.10516    9.2291184    9.2291184    9.2291184    38.831481 
     900    323.78529   -10342.173            0   -9377.9955    18242.335    783.06205     9.217194     9.217194     9.217194    59.438684 
    1000    334.83001   -10395.841            0   -9398.7748    22305.986    781.77854    9.2121552    9.2121552    9.2121552    61.853166 
Loop time of 22.7228 on 16 procs for 1000 steps with 1000 atoms

Performance: 3.802 ns/day, 6.312 hours/ns, 44.009 timesteps/s
94.3% CPU use with 16 MPI tasks x no OpenMP threads

MPI task timing breakdown:
Section |  min time  |  avg time  |  max time  |%varavg| %total
---------------------------------------------------------------
Pair    | 1.5904     | 1.6356     | 1.6736     |   2.0 |  7.20
Neigh   | 0.58636    | 0.59864    | 0.635      |   1.4 |  2.63
Comm    | 0.40246    | 0.47665    | 0.53216    |   5.0 |  2.10
Output  | 13.318     | 13.738     | 19.983     |  43.5 | 60.46
Modify  | 0.021055   | 6.2668     | 6.6868     |  64.4 | 27.58
Other   |            | 0.006834   |            |       |  0.03

Nlocal:    62.5 ave 67 max 56 min
Histogram: 2 0 1 1 2 3 1 1 1 4
Nghost:    1867.31 ave 1886 max 1847 min
Histogram: 1 1 2 0 1 5 3 1 1 1
Neighs:    0 ave 0 max 0 min
Histogram: 16 0 0 0 0 0 0 0 0 0
FullNghs:  18881.9 ave 20453 max 16712 min
Histogram: 1 1 1 1 2 3 2 1 1 3

Total # of neighbors = 302110
Ave neighs/atom = 302.11
Neighbor list builds = 1000
Dangerous builds not checked
Setting up Verlet run ...
  Unit style    : real
  Current step  : 1000
  Time step     : 1
Per MPI rank memory allocation (min/avg/max) = 3.769 | 4.528 | 4.58 Mbytes
Step Temp E_pair E_mol TotEng Press Volume Lx Ly Lz S/CPU 
    1000    334.83001   -10395.841            0   -9398.7748    22305.986    781.77854    9.2121552    9.2121552    9.2121552            0 
    1100    330.83276   -10404.071            0   -9418.9079    2502.4059    782.10156    9.2134239    9.2134239    9.2134239      29.2625 
    1200    322.74423   -10400.071            0   -9438.9941    4164.8296    783.41723    9.2185873    9.2185873    9.2185873    49.965113 
    1300    320.15134   -10412.592            0   -9459.2362   -1550.5585    785.08166    9.2251112    9.2251112    9.2251112    35.631105 
    1400    308.93376   -10396.464            0   -9476.5117    4772.9507    786.58019     9.230977     9.230977     9.230977    33.486819 
    1500    304.16423   -10399.162            0   -9493.4127   -2548.5814    787.74692    9.2355388    9.2355388    9.2355388    29.931174 
    1600    308.33267   -10428.223            0   -9510.0609   -840.50151    788.57044     9.238756     9.238756     9.238756    41.274381 
    1700    308.70435   -10446.281            0   -9527.0123   -10331.983       788.79    9.2396134    9.2396134    9.2396134    46.393765 
    1800    308.98696   -10464.476            0   -9544.3656   -10201.799    788.26802    9.2375748    9.2375748    9.2375748    29.704711 
    1900    314.79793   -10496.944            0   -9559.5293   -3372.5351    786.96717    9.2324905    9.2324905    9.2324905    47.262156 
    2000    306.27824   -10484.513            0   -9572.4686    8760.8138     785.2118    9.2256209    9.2256209    9.2256209    38.651139 
Loop time of 27.2004 on 16 procs for 1000 steps with 1000 atoms

Performance: 3.176 ns/day, 7.556 hours/ns, 36.764 timesteps/s
94.4% CPU use with 16 MPI tasks x no OpenMP threads

MPI task timing breakdown:
Section |  min time  |  avg time  |  max time  |%varavg| %total
---------------------------------------------------------------
Pair    | 2          | 2.2295     | 2.3806     |   5.7 |  8.20
Neigh   | 0.70446    | 0.74982    | 0.80631    |   2.5 |  2.76
Comm    | 0.7775     | 0.98492    | 1.2598     |  10.6 |  3.62
Output  | 15.713     | 16.183     | 23.181     |  44.9 | 59.50
Modify  | 0.046662   | 7.0452     | 7.5153     |  68.1 | 25.90
Other   |            | 0.007867   |            |       |  0.03

Nlocal:    62.5 ave 67 max 58 min
Histogram: 1 0 2 3 2 3 2 1 1 1
Nghost:    1852.94 ave 1885 max 1823 min
Histogram: 2 2 2 1 0 3 2 1 1 2
Neighs:    0 ave 0 max 0 min
Histogram: 16 0 0 0 0 0 0 0 0 0
FullNghs:  18792 ave 20292 max 17254 min
Histogram: 1 0 1 3 3 3 2 1 1 1

Total # of neighbors = 300672
Ave neighs/atom = 300.672
Neighbor list builds = 1000
Dangerous builds not checked
Setting up Verlet run ...
  Unit style    : real
  Current step  : 2000
  Time step     : 1
Per MPI rank memory allocation (min/avg/max) = 4.577 | 4.578 | 4.58 Mbytes
Step Temp E_pair E_mol TotEng Press Volume Lx Ly Lz S/CPU 
    2000    306.27824   -10484.513            0   -9572.4686    8760.8138     785.2118    9.2256209    9.2256209    9.2256209            0 
    2100    293.09829    -10456.95            0   -9584.1537    16794.231    783.55169    9.2191147    9.2191147    9.2191147     42.30379 
    2200    300.33921     -10490.7            0   -9596.3407    19775.791     782.7762    9.2160722    9.2160722    9.2160722    37.535932 
    2300    294.34478   -10482.358            0   -9605.8499    8330.9152    783.31573    9.2181892    9.2181892    9.2181892    39.947739 
    2400    306.35916   -10527.914            0   -9615.6284     2416.128    784.62263    9.2233129    9.2233129    9.2233129    32.157199 
    2500    294.91026    -10501.11            0    -9622.918   -2609.3122    785.97451     9.228607     9.228607     9.228607     41.90131 
    2600    290.60576   -10495.514            0     -9630.14   -434.59438    786.87412    9.2321267    9.2321267    9.2321267    52.537286 
    2700    293.72584   -10509.714            0   -9635.0484    14877.074    787.56497    9.2348277    9.2348277    9.2348277    38.387224 
    2800    293.17801   -10511.377            0   -9638.3432    5164.7113    788.71228    9.2393099    9.2393099    9.2393099     38.51775 
    2900      290.702   -10507.184            0   -9641.5229    -6862.205    789.67783    9.2430787    9.2430787    9.2430787    40.920016 
    3000    290.06215   -10505.526            0   -9641.7706   -13563.094     789.8999     9.243945     9.243945     9.243945    41.085777 
Loop time of 25.0099 on 16 procs for 1000 steps with 1000 atoms

Performance: 3.455 ns/day, 6.947 hours/ns, 39.984 timesteps/s
94.6% CPU use with 16 MPI tasks x no OpenMP threads

MPI task timing breakdown:
Section |  min time  |  avg time  |  max time  |%varavg| %total
---------------------------------------------------------------
Pair    | 2.209      | 2.3497     | 2.542      |   6.2 |  9.40
Neigh   | 0.75302    | 0.78743    | 0.83448    |   2.5 |  3.15
Comm    | 0.84687    | 1.0865     | 1.2617     |  11.1 |  4.34
Output  | 14.029     | 14.45      | 20.714     |  42.5 | 57.78
Modify  | 0.064554   | 6.3283     | 6.7494     |  64.3 | 25.30
Other   |            | 0.008092   |            |       |  0.03

Nlocal:    62.5 ave 66 max 59 min
Histogram: 1 1 2 0 6 1 0 2 2 1
Nghost:    1837.31 ave 1860 max 1814 min
Histogram: 1 1 1 3 2 2 3 0 2 1
Neighs:    0 ave 0 max 0 min
Histogram: 16 0 0 0 0 0 0 0 0 0
FullNghs:  18699.1 ave 19910 max 17621 min
Histogram: 1 1 2 4 2 1 1 2 1 1

Total # of neighbors = 299186
Ave neighs/atom = 299.186
Neighbor list builds = 1000
Dangerous builds not checked
Setting up Verlet run ...
  Unit style    : real
  Current step  : 3000
  Time step     : 1
Per MPI rank memory allocation (min/avg/max) = 4.577 | 4.578 | 4.58 Mbytes
Step Temp E_pair E_mol TotEng Press Volume Lx Ly Lz S/CPU 
    3000    290.06215   -10505.526            0   -9641.7706   -13563.094     789.8999     9.243945     9.243945     9.243945            0 
    3100    291.53763   -10508.941            0   -9640.7913    5393.1154    789.44558    9.2421724    9.2421724    9.2421724     37.97692 
    3200    287.57461   -10493.776            0   -9637.4284   -10531.915     788.5445    9.2386547    9.2386547    9.2386547    30.714315 
    3300    292.16022   -10504.357            0   -9634.3536    1262.8575    786.62339     9.231146     9.231146     9.231146    35.267336 
    3400    295.07013   -10507.253            0    -9628.584    690.95849    784.14961    9.2214591    9.2214591    9.2214591    48.289902 
    3500    294.48224   -10496.532            0   -9619.6144     12595.98    781.70232    9.2118559    9.2118559    9.2118559    49.500876 
    3600    293.46971   -10483.321            0   -9609.4183    6423.5062    779.58874     9.203546     9.203546     9.203546    31.395952 
    3700    301.20368    -10495.72            0   -9598.7864    16603.018    778.07508    9.1975855    9.1975855    9.1975855    43.451834 
    3800    300.80363   -10484.221            0   -9588.4791    19322.858    777.52765     9.195428     9.195428     9.195428    34.554705 
    3900    300.01607   -10473.911            0   -9580.5145    33372.935    778.13424    9.1978186    9.1978186    9.1978186     37.88667 
    4000    299.62975   -10465.757            0   -9573.5103    8041.3784    779.87332    9.2046657    9.2046657    9.2046657    34.811706 
Loop time of 26.708 on 16 procs for 1000 steps with 1000 atoms

Performance: 3.235 ns/day, 7.419 hours/ns, 37.442 timesteps/s
94.5% CPU use with 16 MPI tasks x no OpenMP threads

MPI task timing breakdown:
Section |  min time  |  avg time  |  max time  |%varavg| %total
---------------------------------------------------------------
Pair    | 2.2302     | 2.3571     | 2.6251     |   5.8 |  8.83
Neigh   | 0.74907    | 0.78413    | 0.85089    |   2.6 |  2.94
Comm    | 0.74019    | 1.0742     | 1.2369     |  10.7 |  4.02
Output  | 15.56      | 15.992     | 22.425     |  41.5 | 59.88
Modify  | 0.05867    | 6.4925     | 6.9247     |  65.2 | 24.31
Other   |            | 0.008069   |            |       |  0.03

Nlocal:    62.5 ave 67 max 55 min
Histogram: 1 1 1 0 1 4 1 2 1 4
Nghost:    1866.25 ave 1893 max 1839 min
Histogram: 2 1 2 2 1 2 1 1 2 2
Neighs:    0 ave 0 max 0 min
Histogram: 16 0 0 0 0 0 0 0 0 0
FullNghs:  18924.6 ave 20367 max 16629 min
Histogram: 1 1 1 0 2 2 3 2 0 4

Total # of neighbors = 302794
Ave neighs/atom = 302.794
Neighbor list builds = 1000
Dangerous builds not checked
Setting up Verlet run ...
  Unit style    : real
  Current step  : 4000
  Time step     : 1
Per MPI rank memory allocation (min/avg/max) = 4.577 | 4.578 | 4.58 Mbytes
Step Temp E_pair E_mol TotEng Press Volume Lx Ly Lz S/CPU 
    4000    299.62975   -10465.757            0   -9573.5103    8041.3784    779.87332    9.2046657    9.2046657    9.2046657            0 
    4100     299.8768   -10460.208            0   -9567.2257   -14289.734    782.20934     9.213847     9.213847     9.213847    49.859219 
    4200    297.93444   -10450.759            0   -9563.5615   -16266.637    784.47629    9.2227395    9.2227395    9.2227395     31.52471 
    4300    303.46882   -10463.911            0   -9560.2325   -5146.3746    786.19261    9.2294606    9.2294606    9.2294606    43.071147 
    4400    309.17334   -10480.419            0    -9559.754    8711.2623    787.59759    9.2349552    9.2349552    9.2349552    40.979328 
    4500    311.21562    -10485.29            0   -9558.5427   -5617.5347    789.13548    9.2409621    9.2409621    9.2409621    41.053856 
    4600    309.20996   -10479.335            0   -9558.5602   -1060.7103    790.49797    9.2462774    9.2462774    9.2462774    53.976446 
    4700    303.66868   -10464.322            0   -9560.0487    6216.3893    791.86922    9.2516207    9.2516207    9.2516207    41.579083 
    4800    310.59066   -10489.497            0   -9564.6113   -9708.8755    793.26528    9.2570544    9.2570544    9.2570544    41.263427 
    4900    292.12515   -10438.992            0   -9569.0932   -17493.225    794.28763    9.2610295    9.2610295    9.2610295    42.377827 
    5000    300.17956    -10470.74            0   -9576.8563   -16145.609    794.24796    9.2608753    9.2608753    9.2608753    48.075158 
Loop time of 23.4966 on 16 procs for 1000 steps with 1000 atoms

Performance: 3.677 ns/day, 6.527 hours/ns, 42.559 timesteps/s
94.6% CPU use with 16 MPI tasks x no OpenMP threads

MPI task timing breakdown:
Section |  min time  |  avg time  |  max time  |%varavg| %total
---------------------------------------------------------------
Pair    | 2.2388     | 2.3254     | 2.4332     |   3.5 |  9.90
Neigh   | 0.76208    | 0.78327    | 0.82815    |   1.8 |  3.33
Comm    | 0.91485    | 1.0674     | 1.1753     |   6.6 |  4.54
Output  | 12.413     | 12.844     | 19.267     |  46.3 | 54.66
Modify  | 0.045359   | 6.4681     | 6.9001     |  65.2 | 27.53
Other   |            | 0.008076   |            |       |  0.03

Nlocal:    62.5 ave 68 max 58 min
Histogram: 2 1 0 5 0 0 4 2 1 1
Nghost:    1827.75 ave 1848 max 1812 min
Histogram: 3 0 3 2 0 4 0 1 1 2
Neighs:    0 ave 0 max 0 min
Histogram: 16 0 0 0 0 0 0 0 0 0
FullNghs:  18573 ave 20154 max 17153 min
Histogram: 2 1 2 3 0 0 5 1 1 1

Total # of neighbors = 297168
Ave neighs/atom = 297.168
Neighbor list builds = 1000
Dangerous builds not checked
Setting up Verlet run ...
  Unit style    : real
  Current step  : 5000
  Time step     : 1
Per MPI rank memory allocation (min/avg/max) = 4.577 | 4.578 | 4.58 Mbytes
Step Temp E_pair E_mol TotEng Press Volume Lx Ly Lz S/CPU 
    5000    300.17956    -10470.74            0   -9576.8563   -16145.609    794.24796    9.2608753    9.2608753    9.2608753            0 
    5100    306.10793   -10495.169            0   -9583.6315   -12847.722    793.50586    9.2579901    9.2579901    9.2579901    33.134401 
    5200    296.52096   -10475.987            0   -9592.9985   -17495.158    792.24397    9.2530799    9.2530799    9.2530799    50.122954 
    5300    299.57528    -10494.89            0   -9602.8062   -7804.6357    790.14228    9.2448904    9.2448904    9.2448904    42.450697 
    5400    293.34166   -10485.719            0   -9612.1973   -20141.476    787.03857    9.2327698    9.2327698    9.2327698     43.70501 
    5500    287.39383   -10477.439            0   -9621.6295   -11245.399    783.06943    9.2172229    9.2172229    9.2172229    37.171624 
    5600    281.63243   -10468.346            0    -9629.693    11479.543    779.05271    9.2014361    9.2014361    9.2014361    38.553068 
    5700    299.04435   -10527.829            0   -9637.3256    19614.372    775.64278    9.1879915    9.1879915    9.1879915     38.69886 
    5800    291.81271   -10511.323            0   -9642.3546    16179.897    773.47908    9.1794401    9.1794401    9.1794401    36.464427 
    5900    295.35925    -10528.22            0   -9648.6907    25694.137    772.63182    9.1760871    9.1760871    9.1760871    42.761535 
    6000    296.44961    -10538.41            0   -9655.6334    991.11548    773.06771    9.1778124    9.1778124    9.1778124    41.059799 
Loop time of 25.0414 on 16 procs for 1000 steps with 1000 atoms

Performance: 3.450 ns/day, 6.956 hours/ns, 39.934 timesteps/s
94.6% CPU use with 16 MPI tasks x no OpenMP threads

MPI task timing breakdown:
Section |  min time  |  avg time  |  max time  |%varavg| %total
---------------------------------------------------------------
Pair    | 2.1911     | 2.3657     | 2.4979     |   5.6 |  9.45
Neigh   | 0.74929    | 0.78369    | 0.83983    |   2.5 |  3.13
Comm    | 0.8845     | 1.0519     | 1.2613     |  10.4 |  4.20
Output  | 13.411     | 13.873     | 20.757     |  47.7 | 55.40
Modify  | 0.074871   | 6.9588     | 7.4215     |  67.4 | 27.79
Other   |            | 0.008113   |            |       |  0.03

Nlocal:    62.5 ave 66 max 58 min
Histogram: 1 0 2 0 0 5 2 5 0 1
Nghost:    1863.38 ave 1881 max 1846 min
Histogram: 2 1 2 1 3 1 1 1 2 2
Neighs:    0 ave 0 max 0 min
Histogram: 16 0 0 0 0 0 0 0 0 0
FullNghs:  19098.2 ave 20322 max 17371 min
Histogram: 1 0 1 0 1 6 3 2 1 1

Total # of neighbors = 305572
Ave neighs/atom = 305.572
Neighbor list builds = 1000
Dangerous builds not checked
Setting up Verlet run ...
  Unit style    : real
  Current step  : 6000
  Time step     : 1
Per MPI rank memory allocation (min/avg/max) = 4.577 | 4.578 | 4.58 Mbytes
Step Temp E_pair E_mol TotEng Press Volume Lx Ly Lz S/CPU 
    6000    296.44961    -10538.41            0   -9655.6334    991.11548    773.06771    9.1778124    9.1778124    9.1778124            0 
    6100    302.57859   -10561.742            0   -9660.7147    12490.206    774.37976    9.1830017    9.1830017    9.1830017    43.798839 
    6200    289.32878   -10525.259            0    -9663.687    5445.6645     776.5799    9.1916903    9.1916903    9.1916903    35.822009 
    6300    295.38713   -10547.808            0   -9668.1959    569.26606    779.60591    9.2036136    9.2036136    9.2036136    33.770062 
    6400    287.26617   -10525.065            0   -9669.6354    8220.2644    783.13631    9.2174853    9.2174853    9.2174853    43.219304 
    6500    285.57144   -10517.433            0   -9667.0503   -7163.2378    786.56117    9.2309026    9.2309026    9.2309026    38.396844 
    6600    289.87624   -10527.608            0   -9664.4061     1180.059    789.10242    9.2408331    9.2408331    9.2408331    49.808582 
    6700     289.2797   -10520.574            0   -9659.1487   -18582.215    790.89713    9.2478335    9.2478335    9.2478335     52.57264 
    6800    295.38688   -10534.108            0   -9654.4961   -7371.5021     791.4158    9.2498546    9.2498546    9.2498546    42.336883 
    6900    299.77575   -10541.544            0    -9648.863   -6233.8529    790.74469    9.2472393    9.2472393    9.2472393    37.274793 
    7000    308.48901   -10564.662            0   -9646.0347   -13629.053    789.60245    9.2427845    9.2427845    9.2427845    33.500121 
Loop time of 24.8938 on 16 procs for 1000 steps with 1000 atoms

Performance: 3.471 ns/day, 6.915 hours/ns, 40.171 timesteps/s
94.6% CPU use with 16 MPI tasks x no OpenMP threads

MPI task timing breakdown:
Section |  min time  |  avg time  |  max time  |%varavg| %total
---------------------------------------------------------------
Pair    | 2.2249     | 2.347      | 2.4617     |   5.1 |  9.43
Neigh   | 0.7459     | 0.78396    | 0.8315     |   2.6 |  3.15
Comm    | 0.90307    | 1.0651     | 1.2259     |   9.7 |  4.28
Output  | 14.03      | 14.447     | 20.643     |  42.1 | 58.03
Modify  | 0.046498   | 6.2431     | 6.6596     |  64.0 | 25.08
Other   |            | 0.008054   |            |       |  0.03

Nlocal:    62.5 ave 68 max 57 min
Histogram: 2 2 2 1 2 0 0 3 2 2
Nghost:    1843 ave 1864 max 1825 min
Histogram: 1 1 3 2 3 1 1 2 1 1
Neighs:    0 ave 0 max 0 min
Histogram: 16 0 0 0 0 0 0 0 0 0
FullNghs:  18683.5 ave 20506 max 16880 min
Histogram: 2 0 2 3 2 0 2 3 0 2

Total # of neighbors = 298936
Ave neighs/atom = 298.936
Neighbor list builds = 1000
Dangerous builds not checked
Setting up Verlet run ...
  Unit style    : real
  Current step  : 7000
  Time step     : 1
Per MPI rank memory allocation (min/avg/max) = 4.577 | 4.578 | 4.58 Mbytes
Step Temp E_pair E_mol TotEng Press Volume Lx Ly Lz S/CPU 
    7000    308.48901   -10564.662            0   -9646.0347   -13629.053    789.60245    9.2427845    9.2427845    9.2427845            0 
    7100    297.35602   -10527.413            0   -9641.9379   -11508.696    787.29514    9.2337729    9.2337729    9.2337729    44.772201 
    7200    299.00482   -10529.294            0   -9638.9088   -16798.099    784.30324    9.2220613    9.2220613    9.2220613    40.153541 
    7300    297.68837   -10522.989            0    -9636.524   -15644.614     780.9776    9.2090082    9.2090082    9.2090082    35.588801 
    7400    294.57985   -10511.169            0   -9633.9606    8193.2171     777.4446    9.1951006    9.1951006    9.1951006    33.841583 
    7500    302.80593   -10531.554            0   -9629.8499    10064.292    774.41426    9.1831381    9.1831381    9.1831381    49.211846 
    7600    298.26102   -10513.451            0   -9625.2809    15783.305    772.25549    9.1745971    9.1745971    9.1745971    44.254699 
    7700    297.11418   -10506.257            0   -9621.5015    21973.694    771.40998    9.1712476    9.1712476    9.1712476    28.702153 
    7800    302.39746    -10519.93            0   -9619.4419    19685.471    771.94697    9.1733752    9.1733752    9.1733752    40.117952 
    7900    313.75896   -10551.418            0   -9617.0976    6344.3312     773.4874     9.179473     9.179473     9.179473    35.747214 
    8000    298.24001   -10502.184            0   -9614.0765     14234.89    775.72798    9.1883279    9.1883279    9.1883279    45.471264 
Loop time of 25.7538 on 16 procs for 1000 steps with 1000 atoms

Performance: 3.355 ns/day, 7.154 hours/ns, 38.829 timesteps/s
94.5% CPU use with 16 MPI tasks x no OpenMP threads

MPI task timing breakdown:
Section |  min time  |  avg time  |  max time  |%varavg| %total
---------------------------------------------------------------
Pair    | 2.2896     | 2.3928     | 2.5105     |   4.3 |  9.29
Neigh   | 0.75394    | 0.78507    | 0.82532    |   2.2 |  3.05
Comm    | 0.92106    | 1.0717     | 1.1986     |   8.2 |  4.16
Output  | 14.704     | 15.129     | 21.444     |  41.9 | 58.74
Modify  | 0.051392   | 6.3673     | 6.7918     |  64.6 | 24.72
Other   |            | 0.008071   |            |       |  0.03

Nlocal:    62.5 ave 68 max 58 min
Histogram: 1 1 2 3 1 3 1 1 2 1
Nghost:    1857.62 ave 1888 max 1825 min
Histogram: 2 1 0 2 2 3 0 4 1 1
Neighs:    0 ave 0 max 0 min
Histogram: 16 0 0 0 0 0 0 0 0 0
FullNghs:  19023.6 ave 20648 max 17718 min
Histogram: 2 1 4 0 2 3 1 0 2 1

Total # of neighbors = 304378
Ave neighs/atom = 304.378
Neighbor list builds = 1000
Dangerous builds not checked
Setting up Verlet run ...
  Unit style    : real
  Current step  : 8000
  Time step     : 1
Per MPI rank memory allocation (min/avg/max) = 4.577 | 4.578 | 4.58 Mbytes
Step Temp E_pair E_mol TotEng Press Volume Lx Ly Lz S/CPU 
    8000    298.24001   -10502.184            0   -9614.0765     14234.89    775.72798    9.1883279    9.1883279    9.1883279            0 
    8100    306.77169   -10524.747            0   -9611.2334    17544.631    778.68688    9.1999956    9.1999956    9.1999956    34.830185 
    8200    299.48418    -10499.34            0   -9607.5276    -1343.668    782.11585      9.21348      9.21348      9.21348    46.662252 
    8300    306.16569   -10516.094            0    -9604.385   -4610.9579    785.25573     9.225793     9.225793     9.225793    43.736103 
    8400    294.98931   -10479.436            0   -9601.0085   -17180.743    787.80802    9.2357776    9.2357776    9.2357776    37.053802 
    8500     308.7174   -10516.697            0   -9597.3892   -13169.833    789.20317    9.2412263    9.2412263    9.2412263    50.664883 
    8600     300.5858    -10486.67            0   -9591.5771    -8626.435    789.68377    9.2431018    9.2431018    9.2431018    47.082276 
    8700    298.95258   -10475.628            0   -9585.3979    905.96509    789.80287    9.2435665    9.2435665    9.2435665     44.29663 
    8800    289.34607   -10439.956            0   -9578.3327   -1600.9092    789.71224    9.2432129    9.2432129    9.2432129     48.80727 
    8900     299.0316   -10462.295            0   -9571.8303    9915.2336    789.58974     9.242735     9.242735     9.242735      35.9522 
    9000    312.77902   -10496.928            0   -9565.5253    11131.875    789.58351    9.2427106    9.2427106    9.2427106    39.687217 
Loop time of 23.7046 on 16 procs for 1000 steps with 1000 atoms

Performance: 3.645 ns/day, 6.585 hours/ns, 42.186 timesteps/s
94.6% CPU use with 16 MPI tasks x no OpenMP threads

MPI task timing breakdown:
Section |  min time  |  avg time  |  max time  |%varavg| %total
---------------------------------------------------------------
Pair    | 2.1738     | 2.3229     | 2.4726     |   5.0 |  9.80
Neigh   | 0.74816    | 0.78022    | 0.8125     |   1.9 |  3.29
Comm    | 0.90736    | 1.0898     | 1.2711     |   8.6 |  4.60
Output  | 12.55      | 12.985     | 19.454     |  46.4 | 54.78
Modify  | 0.049083   | 6.5185     | 6.9536     |  65.4 | 27.50
Other   |            | 0.008028   |            |       |  0.03

Nlocal:    62.5 ave 66 max 59 min
Histogram: 1 2 2 0 4 2 0 1 3 1
Nghost:    1864.62 ave 1876 max 1848 min
Histogram: 1 0 1 2 1 2 2 4 0 3
Neighs:    0 ave 0 max 0 min
Histogram: 16 0 0 0 0 0 0 0 0 0
FullNghs:  18726.4 ave 19727 max 17691 min
Histogram: 1 2 2 3 1 1 1 0 2 3

Total # of neighbors = 299622
Ave neighs/atom = 299.622
Neighbor list builds = 1000
Dangerous builds not checked
Setting up Verlet run ...
  Unit style    : real
  Current step  : 9000
  Time step     : 1
Per MPI rank memory allocation (min/avg/max) = 4.577 | 4.578 | 4.58 Mbytes
Step Temp E_pair E_mol TotEng Press Volume Lx Ly Lz S/CPU 
    9000    312.77902   -10496.928            0   -9565.5253    11131.875    789.58351    9.2427106    9.2427106    9.2427106            0 
    9100    308.52725   -10476.792            0   -9558.0504    5662.7344    789.77389    9.2434534    9.2434534    9.2434534    52.492261 
    9200    314.98526   -10488.411            0   -9550.4387    7730.2518    790.03347     9.244466     9.244466     9.244466    34.458022 
    9300    299.46456       -10435            0   -9543.2457    4693.5616    790.17799    9.2450297    9.2450297    9.2450297    36.165775 
    9400    307.92943    -10454.49            0   -9537.5285   -4891.8311    790.20975    9.2451535    9.2451535    9.2451535    31.495809 
    9500    303.68191   -10435.161            0   -9530.8481    3535.8194    789.96911     9.244215     9.244215     9.244215    48.646943 
    9600    307.92443   -10442.702            0   -9525.7558   -3195.3205    789.92667    9.2440494    9.2440494    9.2440494    39.712297 
    9700    313.20956   -10454.963            0   -9522.2789   -382.24738    789.80676    9.2435817    9.2435817    9.2435817    44.211013 
    9800    309.12487   -10439.384            0   -9518.8629   -8393.1922    789.35314    9.2418116    9.2418116    9.2418116      33.0213 
    9900    296.95867   -10400.012            0   -9515.7199    15721.582    788.62218    9.2389581    9.2389581    9.2389581    45.376965 
   10000    307.33723   -10431.632            0   -9516.4341    8310.1004    787.90155    9.2361431    9.2361431    9.2361431    38.506543 
Loop time of 25.4119 on 16 procs for 1000 steps with 1000 atoms

Performance: 3.400 ns/day, 7.059 hours/ns, 39.352 timesteps/s
94.6% CPU use with 16 MPI tasks x no OpenMP threads

MPI task timing breakdown:
Section |  min time  |  avg time  |  max time  |%varavg| %total
---------------------------------------------------------------
Pair    | 2.1874     | 2.3157     | 2.4605     |   4.7 |  9.11
Neigh   | 0.74663    | 0.78195    | 0.82567    |   2.5 |  3.08
Comm    | 0.89398    | 1.0734     | 1.2369     |   8.9 |  4.22
Output  | 14.544     | 14.961     | 21.172     |  41.5 | 58.87
Modify  | 0.060132   | 6.2717     | 6.689      |  64.0 | 24.68
Other   |            | 0.008023   |            |       |  0.03

Nlocal:    62.5 ave 67 max 57 min
Histogram: 1 1 0 1 0 6 3 1 0 3
Nghost:    1846 ave 1872 max 1821 min
Histogram: 2 0 1 3 3 2 2 1 1 1
Neighs:    0 ave 0 max 0 min
Histogram: 16 0 0 0 0 0 0 0 0 0
FullNghs:  18721.1 ave 20268 max 17049 min
Histogram: 2 0 0 1 7 2 1 0 1 2

Total # of neighbors = 299538
Ave neighs/atom = 299.538
Neighbor list builds = 1000
Dangerous builds not checked
Setting up Verlet run ...
  Unit style    : real
  Current step  : 10000
  Time step     : 1
Per MPI rank memory allocation (min/avg/max) = 4.577 | 4.578 | 4.58 Mbytes
Step Temp E_pair E_mol TotEng Press Volume Lx Ly Lz S/CPU 
   10000    307.33723   -10431.632            0   -9516.4341    8310.1004    787.90155    9.2361431    9.2361431    9.2361431            0 
   10100    306.75902   -10433.219            0   -9519.7429   -4962.5306    787.25688    9.2336233    9.2336233    9.2336233    35.286002 
   10200    309.48374   -10447.369            0   -9525.7788     19052.86    786.79573    9.2318201    9.2318201    9.2318201    31.161352 
   10300    310.34608   -10460.795            0   -9536.6374    5582.9773     786.7443    9.2316189    9.2316189    9.2316189    41.632109 
   10400    300.30694   -10446.941            0   -9552.6783    6531.1905    786.97531    9.2325224    9.2325224    9.2325224    45.247064 
   10500    300.70578   -10464.462            0   -9569.0111    12730.295    787.58544    9.2349077    9.2349077    9.2349077    43.133141 
   10600    304.63088   -10490.871            0   -9583.7319    16833.627    788.84181    9.2398157    9.2398157    9.2398157    32.160325 
   10700    299.85346   -10487.045            0   -9594.1322    8039.3916     790.6657    9.2469314    9.2469314    9.2469314     35.12992 
   10800    311.28573    -10528.93            0   -9601.9746    11249.257    792.85201    9.2554465    9.2554465    9.2554465     48.11124 
   10900    301.41929   -10504.928            0   -9607.3528   -5627.1631    795.18443    9.2645136    9.2645136    9.2645136    32.894556 
   11000    302.87825   -10513.431            0   -9611.5117   -9679.3992    797.09048      9.27191      9.27191      9.27191    35.585858 
Loop time of 26.8583 on 16 procs for 1000 steps with 1000 atoms

Performance: 3.217 ns/day, 7.461 hours/ns, 37.232 timesteps/s
94.5% CPU use with 16 MPI tasks x no OpenMP threads

MPI task timing breakdown:
Section |  min time  |  avg time  |  max time  |%varavg| %total
---------------------------------------------------------------
Pair    | 2.18       | 2.297      | 2.4628     |   4.9 |  8.55
Neigh   | 0.74111    | 0.77686    | 0.82697    |   2.1 |  2.89
Comm    | 0.87489    | 1.0904     | 1.2433     |   8.7 |  4.06
Output  | 14.847     | 15.338     | 22.65      |  48.2 | 57.11
Modify  | 0.03533    | 7.3475     | 7.8392     |  69.7 | 27.36
Other   |            | 0.008081   |            |       |  0.03

Nlocal:    62.5 ave 69 max 58 min
Histogram: 5 0 0 4 2 0 2 1 1 1
Nghost:    1834.31 ave 1853 max 1814 min
Histogram: 2 0 2 1 2 3 1 2 2 1
Neighs:    0 ave 0 max 0 min
Histogram: 16 0 0 0 0 0 0 0 0 0
FullNghs:  18517.8 ave 20387 max 17240 min
Histogram: 5 0 0 3 3 0 3 0 1 1

Total # of neighbors = 296284
Ave neighs/atom = 296.284
Neighbor list builds = 1000
Dangerous builds not checked
Setting up Verlet run ...
  Unit style    : real
  Current step  : 11000
  Time step     : 1
Per MPI rank memory allocation (min/avg/max) = 4.577 | 4.578 | 4.58 Mbytes
Step Temp E_pair E_mol TotEng Press Volume Lx Ly Lz S/CPU 
   11000    302.87825   -10513.431            0   -9611.5117   -9679.3992    797.09048      9.27191      9.27191      9.27191            0 
   11100    296.39406   -10497.309            0   -9614.6985   -8905.2744    798.20311    9.2762221    9.2762221    9.2762221    41.663793 
   11200    298.31699   -10506.142            0    -9617.805   -13053.765    798.27443    9.2764984    9.2764984    9.2764984    51.735217 
   11300    293.14375   -10490.493            0   -9617.5613   -11019.802    796.87207    9.2710631    9.2710631    9.2710631    34.871607 
   11400    287.45237   -10472.138            0   -9616.1535    -9709.449    794.13933    9.2604531    9.2604531    9.2604531    32.699268 
   11500    297.97483   -10502.108            0     -9614.79   -7448.6875    790.77804    9.2473693    9.2473693    9.2473693    53.649673 
   11600    287.91532   -10466.107            0   -9608.7448   -8442.3138     786.9568      9.23245      9.23245      9.23245    36.884198 
   11700    287.38857   -10458.983            0   -9603.1887    9260.2631    783.28403    9.2180648    9.2180648    9.2180648    42.022404 
   11800    294.17611   -10472.208            0   -9596.2022    4407.4334    780.27794    9.2062573    9.2062573    9.2062573    41.414386 
   11900     314.4359   -10525.697            0   -9589.3603    8742.6226    777.91394    9.1969505    9.1969505    9.1969505    32.036041 
   12000    306.19803   -10491.542            0   -9579.7362    18245.282    776.40092    9.1909841    9.1909841    9.1909841     36.01209 
Loop time of 25.5267 on 16 procs for 1000 steps with 1000 atoms

Performance: 3.385 ns/day, 7.091 hours/ns, 39.175 timesteps/s
94.6% CPU use with 16 MPI tasks x no OpenMP threads

MPI task timing breakdown:
Section |  min time  |  avg time  |  max time  |%varavg| %total
---------------------------------------------------------------
Pair    | 2.2176     | 2.3524     | 2.456      |   4.3 |  9.22
Neigh   | 0.76381    | 0.78971    | 0.83035    |   1.9 |  3.09
Comm    | 0.92167    | 1.0523     | 1.2114     |   7.9 |  4.12
Output  | 14.21      | 14.654     | 21.259     |  44.6 | 57.41
Modify  | 0.0648     | 6.6705     | 7.1141     |  66.0 | 26.13
Other   |            | 0.008114   |            |       |  0.03

Nlocal:    62.5 ave 67 max 56 min
Histogram: 1 0 1 3 2 1 0 3 3 2
Nghost:    1863.25 ave 1880 max 1850 min
Histogram: 2 3 0 2 4 0 0 2 1 2
Neighs:    0 ave 0 max 0 min
Histogram: 16 0 0 0 0 0 0 0 0 0
FullNghs:  19012.8 ave 20515 max 16973 min
Histogram: 1 0 1 3 1 2 1 4 1 2

Total # of neighbors = 304204
Ave neighs/atom = 304.204
Neighbor list builds = 1000
Dangerous builds not checked
Setting up Verlet run ...
  Unit style    : real
  Current step  : 12000
  Time step     : 1
Per MPI rank memory allocation (min/avg/max) = 4.577 | 4.578 | 4.58 Mbytes
Step Temp E_pair E_mol TotEng Press Volume Lx Ly Lz S/CPU 
   12000    306.19803   -10491.542            0   -9579.7362    18245.282    776.40092    9.1909841    9.1909841    9.1909841            0 
   12100    303.78773   -10477.345            0    -9572.717    10598.347    776.03906     9.189556     9.189556     9.189556    35.533308 
   12200    314.92025   -10506.793            0    -9569.014    20973.461    776.57713    9.1916794    9.1916794    9.1916794    47.901223 
   12300    307.00154   -10479.561            0   -9565.3626     15656.84    778.02905    9.1974042    9.1974042    9.1974042    38.017293 
   12400    292.83206   -10433.593            0   -9561.5893   -2451.0607    780.25229    9.2061564    9.2061564    9.2061564     38.18561 
   12500    305.58092   -10469.419            0   -9559.4512   -8606.7116     782.8383     9.216316     9.216316     9.216316    44.977016 
   12600    300.02152   -10449.812            0   -9556.3994   -5762.4785    785.22384    9.2256681    9.2256681    9.2256681    28.749192 
   12700    302.67017   -10454.621            0   -9553.3211   -3605.1061    787.34187    9.2339556    9.2339556    9.2339556    37.167699 
   12800    309.25986   -10471.748            0   -9550.8252   -13534.445    788.91959    9.2401193    9.2401193    9.2401193    34.111127 
   12900    294.19418    -10422.96            0   -9546.9002   -2495.4064    789.75406    9.2433761    9.2433761    9.2433761    47.413525 
   13000    304.34848   -10449.936            0   -9543.6381   -7229.1732    790.10267    9.2447359    9.2447359    9.2447359    36.250418 
Loop time of 26.3426 on 16 procs for 1000 steps with 1000 atoms

Performance: 3.280 ns/day, 7.317 hours/ns, 37.961 timesteps/s
94.5% CPU use with 16 MPI tasks x no OpenMP threads

MPI task timing breakdown:
Section |  min time  |  avg time  |  max time  |%varavg| %total
---------------------------------------------------------------
Pair    | 2.2048     | 2.3647     | 2.6078     |   6.8 |  8.98
Neigh   | 0.7364     | 0.78556    | 0.86255    |   3.2 |  2.98
Comm    | 0.76273    | 1.0825     | 1.283      |  12.6 |  4.11
Output  | 15.665     | 16.075     | 22.043     |  38.4 | 61.02
Modify  | 0.057866   | 6.0267     | 6.4376     |  62.8 | 22.88
Other   |            | 0.008098   |            |       |  0.03

Nlocal:    62.5 ave 68 max 56 min
Histogram: 1 0 0 5 1 3 0 2 2 2
Nghost:    1834.62 ave 1850 max 1822 min
Histogram: 2 0 4 2 1 2 1 2 1 1
Neighs:    0 ave 0 max 0 min
Histogram: 16 0 0 0 0 0 0 0 0 0
FullNghs:  18673 ave 20226 max 16575 min
Histogram: 1 0 0 4 2 3 0 2 1 3

Total # of neighbors = 298768
Ave neighs/atom = 298.768
Neighbor list builds = 1000
Dangerous builds not checked
Setting up Verlet run ...
  Unit style    : real
  Current step  : 13000
  Time step     : 1
Per MPI rank memory allocation (min/avg/max) = 4.577 | 4.578 | 4.58 Mbytes
Step Temp E_pair E_mol TotEng Press Volume Lx Ly Lz S/CPU 
   13000    304.34848   -10449.936            0   -9543.6381   -7229.1732    790.10267    9.2447359    9.2447359    9.2447359            0 
   13100    306.21479   -10453.839            0   -9541.9839   -5168.7837    789.78496    9.2434966    9.2434966    9.2434966    46.148199 
   13200    303.08575   -10441.232            0    -9538.694   -10867.895    789.35539    9.2418205    9.2418205    9.2418205    43.290232 
   13300    303.70769   -10442.574            0   -9538.1846   -1941.7438    788.73035    9.2393805    9.2393805    9.2393805    33.880088 
   13400    306.45359   -10451.888            0   -9539.3214   -10291.272    788.10148    9.2369242    9.2369242    9.2369242    32.379831 
   13500    300.37657    -10434.95            0     -9540.48   -4063.8507     787.2785    9.2337079    9.2337079    9.2337079     44.81427 
   13600    296.42475   -10428.603            0   -9545.9006    7987.4057    786.31958    9.2299574    9.2299574    9.2299574    37.463893 
   13700    309.30706   -10475.201            0   -9554.1378    9695.3222    785.64409    9.2273136    9.2273136    9.2273136    30.509261 
   13800    311.59878   -10492.781            0   -9564.8931   -1846.6083    785.48425    9.2266878    9.2266878    9.2266878    51.292959 
   13900    307.79165   -10493.677            0   -9577.1258    14186.433    785.85332    9.2281327    9.2281327    9.2281327    36.070951 
   14000    307.50052   -10503.255            0   -9587.5705    24233.226    786.96335    9.2324756    9.2324756    9.2324756    47.953311 
Loop time of 25.5025 on 16 procs for 1000 steps with 1000 atoms

Performance: 3.388 ns/day, 7.084 hours/ns, 39.212 timesteps/s
94.5% CPU use with 16 MPI tasks x no OpenMP threads

MPI task timing breakdown:
Section |  min time  |  avg time  |  max time  |%varavg| %total
---------------------------------------------------------------
Pair    | 2.196      | 2.3258     | 2.5903     |   6.3 |  9.12
Neigh   | 0.75234    | 0.78185    | 0.85802    |   2.8 |  3.07
Comm    | 0.72211    | 1.0663     | 1.2244     |  11.6 |  4.18
Output  | 14.197     | 14.644     | 21.248     |  44.6 | 57.42
Modify  | 0.07581    | 6.6766     | 7.1222     |  66.0 | 26.18
Other   |            | 0.008044   |            |       |  0.03

Nlocal:    62.5 ave 69 max 58 min
Histogram: 4 1 2 1 2 1 3 0 1 1
Nghost:    1862.94 ave 1870 max 1851 min
Histogram: 1 1 2 1 0 2 1 2 1 5
Neighs:    0 ave 0 max 0 min
Histogram: 16 0 0 0 0 0 0 0 0 0
FullNghs:  18776.4 ave 20779 max 17362 min
Histogram: 2 2 3 1 2 2 2 1 0 1

Total # of neighbors = 300422
Ave neighs/atom = 300.422
Neighbor list builds = 1000
Dangerous builds not checked
Setting up Verlet run ...
  Unit style    : real
  Current step  : 14000
  Time step     : 1
Per MPI rank memory allocation (min/avg/max) = 4.577 | 4.578 | 4.58 Mbytes
Step Temp E_pair E_mol TotEng Press Volume Lx Ly Lz S/CPU 
   14000    307.50052   -10503.255            0   -9587.5705    24233.226    786.96335    9.2324756    9.2324756    9.2324756            0 
   14100    298.12757   -10485.617            0   -9597.8436   -5715.1582    788.45067    9.2382883    9.2382883    9.2382883    40.441044 
   14200    307.47952    -10523.33            0    -9607.709   -4495.2704    789.51827    9.2424561    9.2424561    9.2424561    37.449855 
   14300    295.40547   -10494.347            0   -9614.6802   -11042.848    789.99855    9.2443298    9.2443298    9.2443298    48.401653 
   14400    306.97902   -10534.698            0   -9620.5667   -14696.604    789.54384    9.2425558    9.2425558    9.2425558    34.751799 
   14500    308.73296   -10544.323            0   -9624.9691   -4333.8099     788.3824    9.2380216    9.2380216    9.2380216    39.297947 
   14600    294.31367   -10504.152            0   -9627.7362   -373.10865    786.88964    9.2321874    9.2321874    9.2321874     36.78722 
   14700    291.93122   -10500.722            0   -9631.4011    215.38009    785.33048    9.2260857    9.2260857    9.2260857    43.091383 
   14800    292.91864   -10504.855            0   -9632.5929    9797.9326     783.9117    9.2205264    9.2205264    9.2205264     41.32818 
   14900    302.96284   -10534.939            0   -9632.7673    16938.748    783.10705    9.2173705    9.2173705    9.2173705    50.605345 
   15000    304.10865   -10538.268            0   -9632.6847   -4393.5475    782.66002    9.2156163    9.2156163    9.2156163    34.850259 
Loop time of 24.9354 on 16 procs for 1000 steps with 1000 atoms

Performance: 3.465 ns/day, 6.926 hours/ns, 40.104 timesteps/s
94.5% CPU use with 16 MPI tasks x no OpenMP threads

MPI task timing breakdown:
Section |  min time  |  avg time  |  max time  |%varavg| %total
---------------------------------------------------------------
Pair    | 2.1922     | 2.346      | 2.5154     |   5.6 |  9.41
Neigh   | 0.75118    | 0.78576    | 0.83093    |   2.5 |  3.15
Comm    | 0.82321    | 1.0381     | 1.2228     |  10.6 |  4.16
Output  | 13.528     | 13.979     | 20.686     |  46.3 | 56.06
Modify  | 0.071607   | 6.7787     | 7.2296     |  66.5 | 27.19
Other   |            | 0.00809    |            |       |  0.03

Nlocal:    62.5 ave 68 max 56 min
Histogram: 1 1 0 1 2 6 1 1 1 2
Nghost:    1856.62 ave 1872 max 1836 min
Histogram: 1 1 0 3 2 2 1 2 1 3
Neighs:    0 ave 0 max 0 min
Histogram: 16 0 0 0 0 0 0 0 0 0
FullNghs:  18862.5 ave 20513 max 16809 min
Histogram: 1 1 0 2 4 2 2 0 2 2

Total # of neighbors = 301800
Ave neighs/atom = 301.8
Neighbor list builds = 1000
Dangerous builds not checked
Setting up Verlet run ...
  Unit style    : real
  Current step  : 15000
  Time step     : 1
Per MPI rank memory allocation (min/avg/max) = 4.577 | 4.578 | 4.58 Mbytes
Step Temp E_pair E_mol TotEng Press Volume Lx Ly Lz S/CPU 
   15000    304.10865   -10538.268            0   -9632.6847   -4393.5475    782.66002    9.2156163    9.2156163    9.2156163            0 
   15100     303.0803   -10533.711            0   -9631.1892   -12375.957    782.28289    9.2141358    9.2141358    9.2141358    31.121683 
   15200    292.03759   -10498.388            0   -9628.7496   -5629.2772    781.65676    9.2116769    9.2116769    9.2116769     34.32171 
   15300    303.03039   -10526.976            0   -9624.6028    12133.665    781.16322    9.2097377    9.2097377    9.2097377    37.731989 
   15400    304.52767   -10526.555            0   -9619.7234    12641.716    781.58577     9.211398     9.211398     9.211398    49.010754 
   15500    302.30432   -10510.835            0   -9610.6245    12470.874    782.71057    9.2158147    9.2158147    9.2158147    36.200426 
   15600    301.38922   -10499.587            0    -9602.101   -3850.4231     784.2394     9.221811     9.221811     9.221811    31.886243 
   15700    305.07808   -10499.331            0   -9590.8606    1406.6249    785.79225    9.2278936    9.2278936    9.2278936    45.187236 
   15800    315.27023   -10516.519            0   -9577.6982    331.39807    787.05054    9.2328165    9.2328165    9.2328165     47.01203 
   15900    304.77819   -10472.978            0   -9565.4006     4238.149    788.14593    9.2370979    9.2370979    9.2370979    53.134846 
   16000    303.26416   -10457.471            0   -9554.4017   -9480.4441     788.9999    9.2404328    9.2404328    9.2404328    38.496438 
Loop time of 25.5358 on 16 procs for 1000 steps with 1000 atoms

Performance: 3.383 ns/day, 7.093 hours/ns, 39.161 timesteps/s
94.5% CPU use with 16 MPI tasks x no OpenMP threads

MPI task timing breakdown:
Section |  min time  |  avg time  |  max time  |%varavg| %total
---------------------------------------------------------------
Pair    | 2.1655     | 2.3526     | 2.541      |   6.1 |  9.21
Neigh   | 0.7484     | 0.78355    | 0.84627    |   2.4 |  3.07
Comm    | 0.81698    | 1.0678     | 1.2763     |  10.9 |  4.18
Output  | 14.691     | 15.104     | 21.252     |  40.8 | 59.15
Modify  | 0.071594   | 6.2193     | 6.6326     |  63.6 | 24.36
Other   |            | 0.008057   |            |       |  0.03

Nlocal:    62.5 ave 66 max 59 min
Histogram: 2 1 1 0 5 3 0 0 2 2
Nghost:    1848.69 ave 1865 max 1833 min
Histogram: 1 2 0 2 4 2 1 2 1 1
Neighs:    0 ave 0 max 0 min
Histogram: 16 0 0 0 0 0 0 0 0 0
FullNghs:  18699.2 ave 19967 max 17434 min
Histogram: 2 1 1 0 6 1 1 2 0 2

Total # of neighbors = 299188
Ave neighs/atom = 299.188
Neighbor list builds = 1000
Dangerous builds not checked
Setting up Verlet run ...
  Unit style    : real
  Current step  : 16000
  Time step     : 1
Per MPI rank memory allocation (min/avg/max) = 4.577 | 4.578 | 4.58 Mbytes
Step Temp E_pair E_mol TotEng Press Volume Lx Ly Lz S/CPU 
   16000    303.26416   -10457.471            0   -9554.4017   -9480.4441     788.9999    9.2404328    9.2404328    9.2404328            0 
   16100    306.73496   -10460.061            0   -9546.6571   -12648.759    789.35218    9.2418079    9.2418079    9.2418079    41.885917 
   16200    312.12778   -10473.183            0   -9543.7202    -13496.02    788.48219    9.2384114    9.2384114    9.2384114    45.708738 
   16300    309.93464   -10461.776            0   -9538.8437   -9262.2082    786.41102    9.2303152    9.2303152    9.2303152    42.340917 
   16400    316.71526   -10482.327            0   -9539.2031    12486.157    783.61331    9.2193563    9.2193563    9.2193563    39.457831 
   16500     311.8245   -10469.216            0   -9540.6556   -123.17349    780.72348    9.2080093    9.2080093    9.2080093    33.172899 
   16600    303.58871   -10447.761            0   -9543.7258    13849.571    778.36157    9.1987143    9.1987143    9.1987143    29.730859 
   16700    307.46852   -10466.043            0   -9550.4541    10763.041    777.06387    9.1935993    9.1935993    9.1935993    35.894228 
   16800    306.89717    -10473.89            0   -9560.0024    10124.027    776.41198    9.1910277    9.1910277    9.1910277    38.897549 
   16900    314.73431   -10509.271            0   -9572.0463    10520.584    776.56342    9.1916252    9.1916252    9.1916252    32.872873 
   17000    306.19047   -10493.769            0   -9581.9865   -6474.0636     777.4534    9.1951353    9.1951353    9.1951353     40.02955 
Loop time of 26.7464 on 16 procs for 1000 steps with 1000 atoms

Performance: 3.230 ns/day, 7.430 hours/ns, 37.388 timesteps/s
94.5% CPU use with 16 MPI tasks x no OpenMP threads

MPI task timing breakdown:
Section |  min time  |  avg time  |  max time  |%varavg| %total
---------------------------------------------------------------
Pair    | 2.1996     | 2.4061     | 2.5238     |   5.5 |  9.00
Neigh   | 0.73819    | 0.79505    | 0.83567    |   2.6 |  2.97
Comm    | 0.90418    | 1.0429     | 1.3067     |  10.5 |  3.90
Output  | 15.572     | 16.003     | 22.415     |  41.4 | 59.83
Modify  | 0.079175   | 6.4909     | 6.9218     |  65.0 | 24.27
Other   |            | 0.008132   |            |       |  0.03

Nlocal:    62.5 ave 68 max 57 min
Histogram: 1 0 2 2 2 4 3 1 0 1
Nghost:    1862.5 ave 1887 max 1845 min
Histogram: 1 3 1 2 4 2 1 1 0 1
Neighs:    0 ave 0 max 0 min
Histogram: 16 0 0 0 0 0 0 0 0 0
FullNghs:  18974.6 ave 20894 max 17226 min
Histogram: 1 0 2 2 4 4 2 0 0 1

Total # of neighbors = 303594
Ave neighs/atom = 303.594
Neighbor list builds = 1000
Dangerous builds not checked
Setting up Verlet run ...
  Unit style    : real
  Current step  : 17000
  Time step     : 1
Per MPI rank memory allocation (min/avg/max) = 4.577 | 4.578 | 4.58 Mbytes
Step Temp E_pair E_mol TotEng Press Volume Lx Ly Lz S/CPU 
   17000    306.19047   -10493.769            0   -9581.9865   -6474.0636     777.4534    9.1951353    9.1951353    9.1951353            0 
   17100    292.27261   -10462.714            0   -9592.3757    14014.711    778.61441    9.1997102    9.1997102    9.1997102    55.576757 
   17200    305.58499   -10509.306            0   -9599.3257     12434.54    780.47624    9.2070371    9.2070371    9.2070371    38.077654 
   17300    289.20144   -10463.517            0   -9602.3241    6725.5671    782.78226     9.216096     9.216096     9.216096    38.658645 
   17400    295.92401    -10486.52            0   -9605.3093   -5506.6319    785.05547    9.2250086    9.2250086    9.2250086    43.917668 
   17500    290.08417   -10468.816            0   -9604.9953    2479.5355    786.82566    9.2319371    9.2319371    9.2319371    53.876795 
   17600    286.29922   -10456.885            0   -9604.3343   -3565.8082    788.39274     9.238062     9.238062     9.238062    45.377966 
   17700    310.42307    -10527.35            0   -9602.9628   -3771.1617    790.09467    9.2447047    9.2447047    9.2447047    45.260325 
   17800    295.92289   -10479.101            0   -9597.8934   -9662.6407    791.26113     9.249252     9.249252     9.249252    39.764868 
   17900    299.98585   -10488.722            0   -9595.4155   -3505.8267    791.84584    9.2515297    9.2515297    9.2515297    40.621113 
   18000    294.83382   -10468.887            0   -9590.9222   -1610.5009    792.17153    9.2527979    9.2527979    9.2527979    38.862325 
Loop time of 23.1083 on 16 procs for 1000 steps with 1000 atoms

Performance: 3.739 ns/day, 6.419 hours/ns, 43.275 timesteps/s
94.6% CPU use with 16 MPI tasks x no OpenMP threads

MPI task timing breakdown:
Section |  min time  |  avg time  |  max time  |%varavg| %total
---------------------------------------------------------------
Pair    | 2.2182     | 2.3789     | 2.5796     |   5.6 | 10.29
Neigh   | 0.76306    | 0.79373    | 0.84561    |   2.5 |  3.43
Comm    | 0.8179     | 1.0709     | 1.2623     |  10.3 |  4.63
Output  | 11.283     | 11.753     | 18.762     |  52.8 | 50.86
Modify  | 0.0942     | 7.0998     | 7.5706     |  67.9 | 30.72
Other   |            | 0.01138    |            |       |  0.05

Nlocal:    62.5 ave 68 max 57 min
Histogram: 2 0 2 2 3 2 0 2 1 2
Nghost:    1852.62 ave 1869 max 1838 min
Histogram: 3 1 2 0 2 4 1 0 1 2
Neighs:    0 ave 0 max 0 min
Histogram: 16 0 0 0 0 0 0 0 0 0
FullNghs:  18647.1 ave 20218 max 17000 min
Histogram: 2 0 2 2 3 2 0 2 1 2

Total # of neighbors = 298354
Ave neighs/atom = 298.354
Neighbor list builds = 1000
Dangerous builds not checked
Setting up Verlet run ...
  Unit style    : real
  Current step  : 18000
  Time step     : 1
Per MPI rank memory allocation (min/avg/max) = 4.577 | 4.578 | 4.58 Mbytes
Step Temp E_pair E_mol TotEng Press Volume Lx Ly Lz S/CPU 
   18000    294.83382   -10468.887            0   -9590.9222   -1610.5009    792.17153    9.2527979    9.2527979    9.2527979            0 
   18100    298.73353   -10476.118            0   -9586.5407   -22980.954    792.23411    9.2530416    9.2530416    9.2530416    47.500638 
   18200    298.87716   -10468.997            0   -9578.9921   -12027.425    791.62493    9.2506693    9.2506693    9.2506693    51.416617 
   18300    295.80963   -10452.184            0   -9571.3129   -4820.7457    790.43802    9.2460437    9.2460437    9.2460437    45.262011 
   18400    302.90045   -10466.471            0   -9564.4848   -2049.5771    789.11631    9.2408873    9.2408873    9.2408873    42.729434 
   18500    307.72873   -10473.521            0   -9557.1573   -689.03907    787.68067    9.2352799    9.2352799    9.2352799    28.672054 
   18600    306.99357   -10465.347            0    -9551.173   -6048.6488    786.29161     9.229848     9.229848     9.229848    49.787126 
   18700    306.71025   -10458.542            0   -9545.2115    17425.616    785.36864    9.2262351    9.2262351    9.2262351    42.536919 
   18800    306.23653    -10452.77            0   -9540.8494    6676.3566    785.07659    9.2250913    9.2250913    9.2250913    35.967464 
   18900    297.74462   -10424.466            0   -9537.8337   -733.13677     784.9726     9.224684     9.224684     9.224684    42.270969 
   19000    307.31087   -10451.868            0   -9536.7482   -2979.8808    784.89728     9.224389     9.224389     9.224389    40.993171 
Loop time of 24.0324 on 16 procs for 1000 steps with 1000 atoms

Performance: 3.595 ns/day, 6.676 hours/ns, 41.611 timesteps/s
94.6% CPU use with 16 MPI tasks x no OpenMP threads

MPI task timing breakdown:
Section |  min time  |  avg time  |  max time  |%varavg| %total
---------------------------------------------------------------
Pair    | 2.1715     | 2.3422     | 2.5802     |   5.8 |  9.75
Neigh   | 0.75304    | 0.7863     | 0.84947    |   2.5 |  3.27
Comm    | 0.76281    | 1.0635     | 1.2669     |  10.6 |  4.43
Output  | 13.713     | 14.101     | 19.786     |  39.1 | 58.68
Modify  | 0.04604    | 5.7311     | 6.119      |  61.3 | 23.85
Other   |            | 0.008078   |            |       |  0.03

Nlocal:    62.5 ave 66 max 57 min
Histogram: 1 1 1 1 2 2 1 1 3 3
Nghost:    1864.5 ave 1883 max 1839 min
Histogram: 1 0 0 1 3 4 3 1 2 1
Neighs:    0 ave 0 max 0 min
Histogram: 16 0 0 0 0 0 0 0 0 0
FullNghs:  18795.5 ave 19961 max 17234 min
Histogram: 2 1 1 1 1 2 2 0 3 3

Total # of neighbors = 300728
Ave neighs/atom = 300.728
Neighbor list builds = 1000
Dangerous builds not checked
Setting up Verlet run ...
  Unit style    : real
  Current step  : 19000
  Time step     : 1
Per MPI rank memory allocation (min/avg/max) = 4.577 | 4.578 | 4.58 Mbytes
Step Temp E_pair E_mol TotEng Press Volume Lx Ly Lz S/CPU 
   19000    307.31087   -10451.868            0   -9536.7482   -2979.8808    784.89728     9.224389     9.224389     9.224389            0 
   19100    300.11346   -10428.942            0   -9535.2555    1925.1121    785.07175    9.2250724    9.2250724    9.2250724    28.695223 
   19200    313.19995   -10469.213            0   -9536.5569    4607.2887    785.20836    9.2256074    9.2256074    9.2256074    47.653704 
   19300    317.22313   -10484.389            0   -9539.7529    7392.6105    785.42422    9.2264528    9.2264528    9.2264528     37.36517 
   19400    309.03486   -10465.475            0    -9545.222   -5214.3578    785.59674    9.2271282    9.2271282    9.2271282    45.446889 
   19500    304.03219   -10460.889            0   -9555.5329   -13376.449    785.00596    9.2248147    9.2248147    9.2248147    35.800302 
   19600    308.02574   -10488.914            0   -9571.6662    7265.2213    783.89668    9.2204675    9.2204675    9.2204675     39.40827 
   19700    301.21059   -10484.856            0   -9587.9026    7390.1311    783.07202    9.2172331    9.2172331    9.2172331    36.845412 
   19800    287.19012   -10457.611            0   -9602.4082    8688.8984    782.76479    9.2160275    9.2160275    9.2160275    44.257786 
   19900    300.73849   -10509.059            0   -9613.5111    15105.249    783.32741     9.218235     9.218235     9.218235    47.240406 
   20000    296.77288   -10505.177            0   -9621.4378    3122.9883    784.90746    9.2244288    9.2244288    9.2244288    50.087542 
Loop time of 24.8777 on 16 procs for 1000 steps with 1000 atoms

Performance: 3.473 ns/day, 6.910 hours/ns, 40.197 timesteps/s
94.6% CPU use with 16 MPI tasks x no OpenMP threads

MPI task timing breakdown:
Section |  min time  |  avg time  |  max time  |%varavg| %total
---------------------------------------------------------------
Pair    | 2.2558     | 2.3746     | 2.506      |   5.6 |  9.55
Neigh   | 0.74276    | 0.78888    | 0.84154    |   2.8 |  3.17
Comm    | 0.88518    | 1.0496     | 1.2118     |  10.7 |  4.22
Output  | 14.437     | 14.828     | 20.604     |  38.7 | 59.60
Modify  | 0.052087   | 5.8287     | 6.22       |  61.8 | 23.43
Other   |            | 0.008102   |            |       |  0.03

Nlocal:    62.5 ave 71 max 57 min
Histogram: 3 2 2 2 1 1 3 1 0 1
Nghost:    1858.69 ave 1877 max 1841 min
Histogram: 3 0 3 0 1 1 4 2 1 1
Neighs:    0 ave 0 max 0 min
Histogram: 16 0 0 0 0 0 0 0 0 0
FullNghs:  18828.6 ave 21701 max 17302 min
Histogram: 4 2 1 3 1 2 2 0 0 1

Total # of neighbors = 301258
Ave neighs/atom = 301.258
Neighbor list builds = 1000
Dangerous builds not checked
Setting up Verlet run ...
  Unit style    : real
  Current step  : 20000
  Time step     : 1
Per MPI rank memory allocation (min/avg/max) = 4.577 | 4.578 | 4.58 Mbytes
Step Temp E_pair E_mol TotEng Press Volume Lx Ly Lz S/CPU 
   20000    296.77288   -10505.177            0   -9621.4378    3122.9883    784.90746    9.2244288    9.2244288    9.2244288            0 
   20100    289.24155   -10486.102            0   -9624.7897   -3138.5691    786.98698     9.232568     9.232568     9.232568    41.912382 
   20200    291.01758   -10491.396            0   -9624.7954   -7353.9222    788.99541    9.2404153    9.2404153    9.2404153     49.47921 
   20300    290.64078   -10489.464            0    -9623.985     9127.096    790.84202    9.2476186    9.2476186    9.2476186    30.419432 
   20400    292.03584   -10490.854            0   -9621.2207   -6167.8925    792.13518    9.2526564    9.2526564    9.2526564    46.679686 
   20500    278.18005   -10444.411            0   -9616.0386   -6175.2221    792.32874      9.25341      9.25341      9.25341    37.280242 
   20600    301.71977    -10510.26            0     -9611.79   -21951.551     791.7045    9.2509792    9.2509792    9.2509792    34.333216 
   20700     294.2575   -10478.729            0   -9602.4807   -5847.6639    790.42209    9.2459816    9.2459816    9.2459816    38.876511 
   20800    300.06851   -10488.132            0   -9594.5788   -6872.5919    788.73905    9.2394144    9.2394144    9.2394144    59.898976 
   20900    295.95839   -10467.164            0   -9585.8507    3450.0556    786.68644    9.2313926    9.2313926    9.2313926    49.342492 
   21000    312.14751   -10508.529            0   -9579.0074    4097.0137    784.58827    9.2231783    9.2231783    9.2231783    49.380287 
Loop time of 23.7251 on 16 procs for 1000 steps with 1000 atoms

Performance: 3.642 ns/day, 6.590 hours/ns, 42.149 timesteps/s
94.4% CPU use with 16 MPI tasks x no OpenMP threads

MPI task timing breakdown:
Section |  min time  |  avg time  |  max time  |%varavg| %total
---------------------------------------------------------------
Pair    | 2.1946     | 2.3188     | 2.5054     |   6.2 |  9.77
Neigh   | 0.74476    | 0.78202    | 0.82421    |   3.0 |  3.30
Comm    | 0.85882    | 1.0831     | 1.2421     |  11.4 |  4.57
Output  | 13.308     | 13.697     | 19.476     |  40.3 | 57.73
Modify  | 0.050806   | 5.8363     | 6.2268     |  61.8 | 24.60
Other   |            | 0.008029   |            |       |  0.03

Nlocal:    62.5 ave 68 max 58 min
Histogram: 1 2 0 5 0 1 3 2 1 1
Nghost:    1863.25 ave 1877 max 1838 min
Histogram: 1 0 2 0 1 2 1 5 2 2
Neighs:    0 ave 0 max 0 min
Histogram: 16 0 0 0 0 0 0 0 0 0
FullNghs:  18803.2 ave 20389 max 17319 min
Histogram: 1 2 0 5 1 0 3 3 0 1

Total # of neighbors = 300852
Ave neighs/atom = 300.852
Neighbor list builds = 1000
Dangerous builds not checked
Setting up Verlet run ...
  Unit style    : real
  Current step  : 21000
  Time step     : 1
Per MPI rank memory allocation (min/avg/max) = 4.577 | 4.578 | 4.58 Mbytes
Step Temp E_pair E_mol TotEng Press Volume Lx Ly Lz S/CPU 
   21000    312.14751   -10508.529            0   -9579.0074    4097.0137    784.58827    9.2231783    9.2231783    9.2231783            0 
   21100    299.42072   -10464.268            0   -9572.6438    29314.862    782.58171    9.2153089    9.2153089    9.2153089    40.649719 
   21200    304.25525   -10474.688            0   -9568.6679    7864.3182    781.54649    9.2112437    9.2112437    9.2112437     42.44507 
   21300    299.42436   -10457.068            0   -9565.4332    3212.9697    781.12506    9.2095877    9.2095877    9.2095877    45.217611 
   21400    297.19668   -10450.007            0   -9565.0058    5106.5149    781.41607    9.2107313    9.2107313    9.2107313    53.567592 
   21500    304.37656   -10472.742            0   -9566.3605    9045.8057    782.09404    9.2133943    9.2133943    9.2133943    43.961744 
   21600    305.42569   -10476.462            0   -9566.9561    16465.505    783.02573    9.2170514    9.2170514    9.2170514    44.061352 
   21700    304.73935   -10478.469            0   -9571.0072    13371.218    784.48334    9.2227671    9.2227671    9.2227671    34.671906 
   21800    299.05142   -10464.597            0   -9574.0733    1858.4253    786.60163    9.2310608    9.2310608    9.2310608    39.916108 
   21900    303.47154   -10481.251            0   -9577.5646   -8394.6129    788.85636    9.2398725    9.2398725    9.2398725    41.771792 
   22000    303.79575    -10486.41            0   -9581.7581   -780.98234    790.78282    9.2473879    9.2473879    9.2473879    47.870207 
Loop time of 23.311 on 16 procs for 1000 steps with 1000 atoms

Performance: 3.706 ns/day, 6.475 hours/ns, 42.898 timesteps/s
94.6% CPU use with 16 MPI tasks x no OpenMP threads

MPI task timing breakdown:
Section |  min time  |  avg time  |  max time  |%varavg| %total
---------------------------------------------------------------
Pair    | 2.3106     | 2.4035     | 2.4814     |   3.0 | 10.31
Neigh   | 0.77154    | 0.79759    | 0.82688    |   1.6 |  3.42
Comm    | 0.93086    | 1.0383     | 1.1573     |   5.6 |  4.45
Output  | 13.817     | 14.145     | 19.019     |  33.5 | 60.68
Modify  | 0.044226   | 4.9184     | 5.247      |  56.7 | 21.10
Other   |            | 0.008212   |            |       |  0.04

Nlocal:    62.5 ave 67 max 58 min
Histogram: 2 1 1 1 3 2 2 2 0 2
Nghost:    1848.75 ave 1862 max 1831 min
Histogram: 2 1 0 1 2 2 2 1 2 3
Neighs:    0 ave 0 max 0 min
Histogram: 16 0 0 0 0 0 0 0 0 0
FullNghs:  18666.2 ave 20014 max 17212 min
Histogram: 2 1 1 1 2 3 1 2 1 2

Total # of neighbors = 298660
Ave neighs/atom = 298.66
Neighbor list builds = 1000
Dangerous builds not checked
Setting up Verlet run ...
  Unit style    : real
  Current step  : 22000
  Time step     : 1
Per MPI rank memory allocation (min/avg/max) = 4.577 | 4.578 | 4.58 Mbytes
Step Temp E_pair E_mol TotEng Press Volume Lx Ly Lz S/CPU 
   22000    303.79575    -10486.41            0   -9581.7581   -780.98234    790.78282    9.2473879    9.2473879    9.2473879            0 
   22100    288.01936   -10444.133            0   -9586.4605    -18423.89    792.12051    9.2525993    9.2525993    9.2525993    50.619151 
   22200    284.71679   -10442.819            0    -9594.981   -18745.011    792.69494    9.2548353    9.2548353    9.2548353     32.69073 
   22300    291.81446   -10476.328            0   -9607.3542     1087.175    792.29999     9.253298     9.253298     9.253298    43.738634 
   22400    295.89927   -10505.749            0   -9624.6112    4678.5532     791.5093    9.2502188    9.2502188    9.2502188    31.275181 
   22500    295.26762   -10522.149            0   -9642.8928   -11071.037    791.04314    9.2484025    9.2484025    9.2484025    33.630017 
   22600    292.20411   -10526.388            0   -9656.2537   -14302.941    790.33792    9.2456534    9.2456534    9.2456534    32.327679 
   22700    280.75624   -10502.137            0   -9666.0929   -14022.371    788.85275    9.2398584    9.2398584    9.2398584    46.123298 
   22800    297.69971   -10559.139            0   -9672.6402   -6894.8627    786.63269    9.2311824    9.2311824    9.2311824    38.964469 
   22900    282.94153   -10516.616            0   -9674.0644   -6108.4549    783.87433    9.2203799    9.2203799    9.2203799    42.154129 
   23000    285.93101    -10524.36            0   -9672.9058     17712.72    781.19102     9.209847     9.209847     9.209847    44.324457 
Loop time of 25.948 on 16 procs for 1000 steps with 1000 atoms

Performance: 3.330 ns/day, 7.208 hours/ns, 38.539 timesteps/s
94.5% CPU use with 16 MPI tasks x no OpenMP threads

MPI task timing breakdown:
Section |  min time  |  avg time  |  max time  |%varavg| %total
---------------------------------------------------------------
Pair    | 2.1811     | 2.2979     | 2.4041     |   4.0 |  8.86
Neigh   | 0.74878    | 0.77726    | 0.82159    |   2.1 |  3.00
Comm    | 0.92228    | 1.0725     | 1.2172     |   7.5 |  4.13
Output  | 14.022     | 14.508     | 21.732     |  49.0 | 55.91
Modify  | 0.059756   | 7.2845     | 7.7699     |  69.1 | 28.07
Other   |            | 0.008036   |            |       |  0.03

Nlocal:    62.5 ave 67 max 54 min
Histogram: 1 0 0 2 2 2 2 1 1 5
Nghost:    1861.06 ave 1881 max 1841 min
Histogram: 1 1 0 4 1 3 3 1 1 1
Neighs:    0 ave 0 max 0 min
Histogram: 16 0 0 0 0 0 0 0 0 0
FullNghs:  18921 ave 20290 max 16329 min
Histogram: 1 0 0 1 3 2 1 2 2 4

Total # of neighbors = 302736
Ave neighs/atom = 302.736
Neighbor list builds = 1000
Dangerous builds not checked
Setting up Verlet run ...
  Unit style    : real
  Current step  : 23000
  Time step     : 1
Per MPI rank memory allocation (min/avg/max) = 4.577 | 4.578 | 4.58 Mbytes
Step Temp E_pair E_mol TotEng Press Volume Lx Ly Lz S/CPU 
   23000    285.93101    -10524.36            0   -9672.9058     17712.72    781.19102     9.209847     9.209847     9.209847            0 
   23100    299.35126   -10562.104            0   -9670.6868    3061.3358    779.37505     9.202705     9.202705     9.202705    25.795202 
   23200    285.55191   -10514.825            0   -9664.5002    5503.8441    778.39739    9.1988554    9.1988554    9.1988554    45.595576 
   23300    290.64513    -10524.16            0   -9658.6687    6805.4333    778.30201    9.1984796    9.1984796    9.1984796    39.155524 
   23400    290.58126   -10515.394            0   -9650.0931    9316.7031    778.75686    9.2002712    9.2002712    9.2002712    48.047434 
   23500    286.27461   -10493.312            0    -9640.835   -1197.4372    779.41518    9.2028629    9.2028629    9.2028629    29.303391 
   23600    302.74108   -10533.469            0    -9631.958    6177.0359    780.10814    9.2055895    9.2055895    9.2055895    50.988813 
   23700    306.48959   -10537.021            0   -9624.3476   -8150.0114    780.94519    9.2088808    9.2088808    9.2088808    41.985441 
   23800    301.73434   -10516.479            0   -9617.9656   -2236.3256      781.801    9.2122435    9.2122435    9.2122435    37.735848 
   23900     299.7996   -10506.172            0   -9613.4196   -1437.3649    782.42529    9.2146949    9.2146949    9.2146949    37.737632 
   24000    307.16657   -10525.002            0   -9610.3122    8825.9893    783.39825    9.2185129    9.2185129    9.2185129    34.289462 
Loop time of 26.6769 on 16 procs for 1000 steps with 1000 atoms

Performance: 3.239 ns/day, 7.410 hours/ns, 37.486 timesteps/s
94.5% CPU use with 16 MPI tasks x no OpenMP threads

MPI task timing breakdown:
Section |  min time  |  avg time  |  max time  |%varavg| %total
---------------------------------------------------------------
Pair    | 2.3323     | 2.4644     | 2.5513     |   4.0 |  9.24
Neigh   | 0.77025    | 0.8074     | 0.84519    |   2.1 |  3.03
Comm    | 0.90923    | 1.0259     | 1.1952     |   7.9 |  3.85
Output  | 15.24      | 15.685     | 22.308     |  43.2 | 58.80
Modify  | 0.062298   | 6.686      | 7.1312     |  66.1 | 25.06
Other   |            | 0.008254   |            |       |  0.03

Nlocal:    62.5 ave 66 max 60 min
Histogram: 3 2 0 4 0 2 2 0 2 1
Nghost:    1852.12 ave 1862 max 1842 min
Histogram: 1 4 0 1 1 2 1 2 2 2
Neighs:    0 ave 0 max 0 min
Histogram: 16 0 0 0 0 0 0 0 0 0
FullNghs:  18836.5 ave 19891 max 18007 min
Histogram: 3 1 1 4 0 2 1 1 2 1

Total # of neighbors = 301384
Ave neighs/atom = 301.384
Neighbor list builds = 1000
Dangerous builds not checked
Setting up Verlet run ...
  Unit style    : real
  Current step  : 24000
  Time step     : 1
Per MPI rank memory allocation (min/avg/max) = 4.577 | 4.578 | 4.58 Mbytes
Step Temp E_pair E_mol TotEng Press Volume Lx Ly Lz S/CPU 
   24000    307.16657   -10525.002            0   -9610.3122    8825.9893    783.39825    9.2185129    9.2185129    9.2185129            0 
   24100    301.99941   -10508.289            0   -9608.9859    -109.1793    784.55073    9.2230312    9.2230312    9.2230312    43.632102 
   24200    288.02836   -10464.049            0     -9606.35   -3935.1475    785.75118    9.2277329    9.2277329    9.2277329    39.266747 
   24300    299.55703   -10498.001            0   -9605.9713    -12817.36    786.69607    9.2314303    9.2314303    9.2314303    42.483058 
   24400    295.57674   -10485.206            0   -9605.0291   -3994.1213    787.04013    9.2327759    9.2327759    9.2327759    46.721922 
   24500    296.18038   -10487.121            0    -9605.146   -11004.575    787.05585    9.2328373    9.2328373    9.2328373    34.093701 
   24600     303.7573   -10508.925            0   -9604.3878    6069.6822    786.63486    9.2311908    9.2311908    9.2311908    57.705963 
   24700    300.57498   -10496.606            0   -9601.5448    10659.196    786.07768    9.2290108    9.2290108    9.2290108    37.597173 
   24800    300.95274   -10496.638            0   -9600.4521    136.00678    785.82502    9.2280219    9.2280219    9.2280219    41.680135 
   24900    307.37128   -10514.025            0   -9598.7257    7231.3602    785.88295    9.2282487    9.2282487    9.2282487     49.51466 
   25000    301.51031    -10492.24            0   -9594.3936   -3485.0626    786.02693    9.2288122    9.2288122    9.2288122     35.28244 
Loop time of 23.9117 on 16 procs for 1000 steps with 1000 atoms

Performance: 3.613 ns/day, 6.642 hours/ns, 41.821 timesteps/s
94.6% CPU use with 16 MPI tasks x no OpenMP threads

MPI task timing breakdown:
Section |  min time  |  avg time  |  max time  |%varavg| %total
---------------------------------------------------------------
Pair    | 2.2115     | 2.3467     | 2.4459     |   3.6 |  9.81
Neigh   | 0.74472    | 0.78464    | 0.81714    |   1.7 |  3.28
Comm    | 0.96734    | 1.0775     | 1.2525     |   6.6 |  4.51
Output  | 13.307     | 13.707     | 19.656     |  41.5 | 57.32
Modify  | 0.039216   | 5.9876     | 6.3881     |  62.8 | 25.04
Other   |            | 0.008086   |            |       |  0.03

Nlocal:    62.5 ave 66 max 54 min
Histogram: 1 0 0 0 0 2 4 2 5 2
Nghost:    1861.88 ave 1878 max 1840 min
Histogram: 1 0 2 2 1 0 2 7 0 1
Neighs:    0 ave 0 max 0 min
Histogram: 16 0 0 0 0 0 0 0 0 0
FullNghs:  18775 ave 19868 max 16031 min
Histogram: 1 0 0 0 1 1 4 3 4 2

Total # of neighbors = 300400
Ave neighs/atom = 300.4
Neighbor list builds = 1000
Dangerous builds not checked
Setting up Verlet run ...
  Unit style    : real
  Current step  : 25000
  Time step     : 1
Per MPI rank memory allocation (min/avg/max) = 4.577 | 4.578 | 4.58 Mbytes
Step Temp E_pair E_mol TotEng Press Volume Lx Ly Lz S/CPU 
   25000    301.51031    -10492.24            0   -9594.3936   -3485.0626    786.02693    9.2288122    9.2288122    9.2288122            0 
   25100    292.74045   -10462.821            0   -9591.0898    3081.4215    786.10002    9.2290982    9.2290982    9.2290982    43.829234 
   25200    297.97553     -10472.9            0   -9585.5796    2728.3628    786.24879    9.2296804    9.2296804    9.2296804    52.039529 
   25300    301.34435   -10472.713            0   -9575.3607   -8423.0207     786.4776    9.2305756    9.2305756    9.2305756    32.416086 
   25400    314.25604   -10497.477            0   -9561.6763    2728.9139    786.73754    9.2315925    9.2315925    9.2315925     48.14931 
   25500    312.66034   -10474.268            0   -9543.2193    16475.917    787.23389    9.2335334    9.2335334    9.2335334    37.155013 
   25600     307.3168   -10441.963            0   -9526.8257     13966.53    788.16217    9.2371613    9.2371613    9.2371613    39.622848 
   25700    309.46456    -10436.93            0   -9515.3975   -6286.1773    789.55249    9.2425896    9.2425896    9.2425896     36.66823 
   25800    308.76313   -10428.007            0   -9508.5628    2142.2188    790.99005    9.2481956    9.2481956    9.2481956    44.962997 
   25900    298.71199    -10394.57            0   -9505.0569   -2771.6315     792.4236    9.2537792    9.2537792    9.2537792    43.155093 
   26000    314.31702   -10441.408            0   -9505.4258    2174.8093    793.84908    9.2593247    9.2593247    9.2593247    41.105171 
Loop time of 24.2814 on 16 procs for 1000 steps with 1000 atoms

Performance: 3.558 ns/day, 6.745 hours/ns, 41.184 timesteps/s
94.6% CPU use with 16 MPI tasks x no OpenMP threads

MPI task timing breakdown:
Section |  min time  |  avg time  |  max time  |%varavg| %total
---------------------------------------------------------------
Pair    | 2.2186     | 2.3475     | 2.4926     |   5.0 |  9.67
Neigh   | 0.75989    | 0.7888     | 0.83162    |   2.1 |  3.25
Comm    | 0.85658    | 1.036      | 1.1938     |   9.2 |  4.27
Output  | 13.836     | 14.229     | 20.039     |  39.8 | 58.60
Modify  | 0.06125    | 5.8717     | 6.265      |  61.9 | 24.18
Other   |            | 0.008118   |            |       |  0.03

Nlocal:    62.5 ave 69 max 57 min
Histogram: 3 0 0 3 3 3 1 1 1 1
Nghost:    1845.25 ave 1865 max 1830 min
Histogram: 1 1 3 3 3 2 1 0 0 2
Neighs:    0 ave 0 max 0 min
Histogram: 16 0 0 0 0 0 0 0 0 0
FullNghs:  18594.9 ave 20763 max 16857 min
Histogram: 3 0 1 4 1 2 2 2 0 1

Total # of neighbors = 297518
Ave neighs/atom = 297.518
Neighbor list builds = 1000
Dangerous builds not checked
Setting up Verlet run ...
  Unit style    : real
  Current step  : 26000
  Time step     : 1
Per MPI rank memory allocation (min/avg/max) = 4.577 | 4.578 | 4.58 Mbytes
Step Temp E_pair E_mol TotEng Press Volume Lx Ly Lz S/CPU 
   26000    314.31702   -10441.408            0   -9505.4258    2174.8093    793.84908    9.2593247    9.2593247    9.2593247            0 
   26100    317.99258   -10453.945            0   -9507.0171    7506.1566    795.38342    9.2652863    9.2652863    9.2652863    46.524856 
   26200    316.71716    -10453.68            0   -9510.5502   -4677.7052    796.95477    9.2713838    9.2713838    9.2713838     43.71596 
   26300     307.6756   -10434.188            0   -9517.9826   -18448.984    797.75757    9.2744958    9.2744958    9.2744958    45.791255 
   26400    311.72574   -10456.202            0   -9527.9359   -19988.057    797.11526    9.2720061    9.2720061    9.2720061    52.587369 
   26500    291.19781   -10404.133            0   -9536.9958   -14393.215    795.25783    9.2647986    9.2647986    9.2647986    41.022018 
   26600    310.30461    -10472.13            0   -9548.0964   -4472.4979    792.52536    9.2541753    9.2541753    9.2541753    43.240357 
   26700    304.13908   -10463.434            0   -9557.7597    5814.8409    789.67453    9.2430658    9.2430658    9.2430658    38.109919 
   26800    299.04453    -10457.19            0   -9566.6863   -601.53469    787.12003    9.2330883    9.2330883    9.2330883    40.377908 
   26900    307.56263    -10490.06            0    -9574.191    11771.078    784.90347    9.2244132    9.2244132    9.2244132     39.15941 
   27000    299.86562   -10472.946            0    -9579.997    16052.719    783.45725    9.2187443    9.2187443    9.2187443    47.744491 
Loop time of 23.0214 on 16 procs for 1000 steps with 1000 atoms

Performance: 3.753 ns/day, 6.395 hours/ns, 43.438 timesteps/s
94.6% CPU use with 16 MPI tasks x no OpenMP threads

MPI task timing breakdown:
Section |  min time  |  avg time  |  max time  |%varavg| %total
---------------------------------------------------------------
Pair    | 2.1748     | 2.3137     | 2.4196     |   4.5 | 10.05
Neigh   | 0.74454    | 0.78253    | 0.82431    |   2.3 |  3.40
Comm    | 0.9108     | 1.0546     | 1.2311     |   8.5 |  4.58
Output  | 11.696     | 12.145     | 18.816     |  49.4 | 52.75
Modify  | 0.042428   | 6.7178     | 7.1669     |  66.5 | 29.18
Other   |            | 0.008071   |            |       |  0.04

Nlocal:    62.5 ave 68 max 55 min
Histogram: 2 1 0 0 0 3 6 2 0 2
Nghost:    1864 ave 1884 max 1842 min
Histogram: 2 1 2 1 0 1 3 3 2 1
Neighs:    0 ave 0 max 0 min
Histogram: 16 0 0 0 0 0 0 0 0 0
FullNghs:  18838.8 ave 20491 max 16329 min
Histogram: 2 0 1 0 0 3 2 6 0 2

Total # of neighbors = 301420
Ave neighs/atom = 301.42
Neighbor list builds = 1000
Dangerous builds not checked
Setting up Verlet run ...
  Unit style    : real
  Current step  : 27000
  Time step     : 1
Per MPI rank memory allocation (min/avg/max) = 4.577 | 4.578 | 4.58 Mbytes
Step Temp E_pair E_mol TotEng Press Volume Lx Ly Lz S/CPU 
   27000    299.86562   -10472.946            0    -9579.997    16052.719    783.45725    9.2187443    9.2187443    9.2187443            0 
   27100    306.96723   -10499.536            0   -9585.4397    21674.876    783.18283    9.2176678    9.2176678    9.2176678    44.806953 
   27200    302.18854   -10490.274            0    -9590.408    11347.405     784.0079    9.2209036    9.2209036    9.2209036    39.919065 
   27300    301.65844   -10492.766            0    -9594.479    6207.7487    785.45053    9.2265558    9.2265558    9.2265558    45.163344 
   27400    301.27059   -10495.835            0   -9598.7022   -2475.3157    787.50325    9.2345864    9.2345864    9.2345864    40.165406 
   27500    303.03459   -10506.931            0   -9604.5454   -22842.177    789.57764    9.2426877    9.2426877    9.2426877    54.969857 
   27600    303.31108   -10512.536            0   -9609.3272   -14161.004    790.80426    9.2474714    9.2474714    9.2474714    50.168192 
   27700    308.87296   -10534.232            0   -9614.4607   -5608.2449    791.06396    9.2484837    9.2484837    9.2484837    37.643787 
   27800    299.19049   -10508.817            0   -9617.8793   -6607.0721    790.60867     9.246709     9.246709     9.246709    44.083122 
   27900    300.05306   -10516.177            0     -9622.67    2493.4361     789.3555    9.2418209    9.2418209    9.2418209    43.126961 
   28000      298.155    -10514.88            0   -9627.0254    1161.9762    787.65733    9.2351887    9.2351887    9.2351887    41.221916 
Loop time of 22.9228 on 16 procs for 1000 steps with 1000 atoms

Performance: 3.769 ns/day, 6.367 hours/ns, 43.625 timesteps/s
[...]
 1396700    301.71185    -11392.16            0   -10493.713    9414.0234    751.38082    9.0911754    9.0911754    9.0911754    47.316124 
 1396800    291.48262   -11364.843            0   -10496.857    2657.0692    753.84755    9.1011131    9.1011131    9.1011131    49.224594 
 1396900    303.41265   -11404.892            0   -10501.381   -11791.778    756.04769    9.1099585    9.1099585    9.1099585    42.294492 
 1397000    297.48926   -11390.192            0    -10504.32   -19187.103    757.33796    9.1151379    9.1151379    9.1151379    49.398964 
 1397100    294.59799   -11385.318            0   -10508.056   -17176.399    757.56995    9.1160685    9.1160685    9.1160685     52.63238 
 1397200    308.61896   -11431.064            0   -10512.049   -14027.827    756.43924    9.1115308    9.1115308    9.1115308    37.106951 
 1397300    300.74798   -11411.344            0   -10515.768    -7153.845    754.21147    9.1025773    9.1025773    9.1025773    44.467211 
 1397400    300.93617   -11415.557            0    -10519.42    12745.637    751.91197     9.093317     9.093317     9.093317     38.55236 
 1397500    295.40421   -11403.679            0   -10524.016    17774.152    750.27018    9.0866938    9.0866938    9.0866938     50.56618 
 1397600    286.41564   -11385.702            0   -10532.805    15605.295    749.22121    9.0824571    9.0824571    9.0824571    47.981018 
 1397700    295.17192   -11426.371            0     -10547.4    20001.475    749.08306    9.0818988    9.0818988    9.0818988    38.833645 
 1397800    295.26548   -11444.799            0   -10565.549    4477.3421    749.58129    9.0839119    9.0839119    9.0839119    51.769529 
 1397900    292.25797   -11452.359            0   -10582.064    1819.2122     750.3641     9.087073     9.087073     9.087073     38.04015 
 1398000    295.71833   -11475.778            0   -10595.179    7247.9002    751.51562     9.091719     9.091719     9.091719    40.156166 
 1398100     290.6102    -11467.87            0   -10602.483    5735.9517    752.69762    9.0964831    9.0964831    9.0964831    33.692872 
 1398200    281.80235   -11443.237            0   -10604.078   -1588.0579     753.5123    9.0997637    9.0997637    9.0997637     43.93549 
 1398300    286.44703   -11458.006            0   -10605.015   -11538.293    753.87265    9.1012141    9.1012141    9.1012141    56.003581 
 1398400    292.76601   -11474.047            0    -10602.24   -6443.8307    753.77477    9.1008202    9.1008202    9.1008202    48.027913 
 1398500    291.74915   -11465.415            0   -10596.636   -8740.4328    753.33023    9.0990307    9.0990307    9.0990307    40.242373 
 1398600     288.1854   -11446.557            0    -10588.39   -14509.477     752.2877    9.0948314    9.0948314    9.0948314    56.269024 
 1398700    287.14082   -11433.558            0   -10578.502   -895.12571    750.67333    9.0883211    9.0883211    9.0883211    46.129818 
 1398800    295.74313    -11448.89            0   -10568.218    11167.922    748.91545    9.0812214    9.0812214    9.0812214    36.600188 
 1398900    299.01366     -11447.5            0   -10557.089    7648.1404    747.58872    9.0758556    9.0758556    9.0758556     55.25468 
 1399000    290.64148   -11412.266            0   -10546.785   -4923.0481    747.07399    9.0737722    9.0737722    9.0737722    36.790835 
 1399100    289.47488   -11400.375            0   -10538.369    11586.562    747.15226    9.0740891    9.0740891    9.0740891     47.03683 
 1399200    294.78965   -11408.808            0   -10530.975    4770.2106    748.16794     9.078199     9.078199     9.078199    38.900258 
 1399300    292.41166   -11394.915            0   -10524.163    8882.1602    749.92126     9.085285     9.085285     9.085285    34.801553 
 1399400    293.46423   -11392.496            0    -10518.61    3923.9604     752.0805    9.0939964    9.0939964    9.0939964    55.072582 
 1399500    294.51264   -11389.311            0   -10512.303   -11653.453    754.27042    9.1028145    9.1028145    9.1028145    54.103782 
 1399600    295.84572   -11387.292            0   -10506.314   -22870.347    756.18845    9.1105238    9.1105238    9.1105238      30.1434 
 1399700     298.7265   -11390.386            0   -10500.829   -11250.967     757.0459     9.113966     9.113966     9.113966    53.362659 
 1399800    293.19592    -11367.07            0   -10493.983   -12136.998    756.81213    9.1130278    9.1130278    9.1130278    44.165907 
 1399900    293.64929   -11362.044            0   -10487.607   -21374.519    755.38321    9.1072888    9.1072888    9.1072888     50.99851 
 1400000    297.07364   -11367.543            0   -10482.909    8009.7755    752.85707    9.0971253    9.0971253    9.0971253    52.184483 
 1400100    298.60871   -11365.916            0    -10476.71    3512.2109    750.61021    9.0880664    9.0880664    9.0880664    38.796202 
 1400200    294.10158   -11347.921            0   -10472.137    7650.3594      748.762    9.0806011    9.0806011    9.0806011    45.381322 
 1400300    314.08011   -11406.617            0   -10471.341    26347.406    747.37824    9.0750038    9.0750038    9.0750038    47.839172 
 1400400    309.08718   -11389.228            0   -10468.819    11347.106    746.96913    9.0733477    9.0733477    9.0733477      48.4661 
 1400500    295.09502   -11346.524            0   -10467.782    24502.887    747.87877    9.0770293    9.0770293    9.0770293    47.419168 
 1400600     301.1135   -11366.932            0   -10470.267    10461.338    750.11082    9.0860505    9.0860505    9.0860505    58.283806 
 1400700    310.99796   -11400.073            0   -10473.974   -1334.1989    753.06069    9.0979454    9.0979454    9.0979454    40.372892 
 1400800    308.27034   -11395.902            0   -10477.925    3334.6519    756.04242    9.1099373    9.1099373    9.1099373    50.504864 
 1400900    316.90164   -11430.792            0   -10487.113    -15928.45    758.07194    9.1180816    9.1180816    9.1180816    48.313937 
 1401000    292.54319   -11368.246            0   -10497.102   -20943.631    758.52213    9.1198862    9.1198862    9.1198862     44.73263 
 1401100    292.99147   -11384.845            0   -10512.367   -22706.116    757.46541    9.1156492    9.1156492    9.1156492    51.338483 
 1401200    291.27368   -11396.432            0   -10529.069   -9087.8095    754.89172    9.1053132    9.1053132    9.1053132    55.177635 
 1401300    297.22532   -11429.104            0   -10544.018   -6273.9853    751.36304    9.0911037    9.0911037    9.0911037     36.83064 
 1401400    286.83787   -11406.796            0   -10552.642    15949.001    747.54322    9.0756715    9.0756715    9.0756715    52.628886 
 1401500    297.00383   -11443.213            0   -10558.787    24852.675    744.42558    9.0630372    9.0630372    9.0630372    43.521171 
 1401600    294.38749   -11437.813            0   -10561.177    28399.145     742.5467    9.0554059    9.0554059    9.0554059    63.860106 
 1401700    297.83538     -11449.5            0   -10562.597    28263.888    742.57426     9.055518     9.055518     9.055518    56.056887 
 1401800    291.39279   -11430.611            0   -10562.893    1986.5445     744.6223    9.0638355    9.0638355    9.0638355    41.396209 
 1401900    294.98067   -11440.862            0    -10562.46    3049.2182    747.69176    9.0762726    9.0762726    9.0762726    49.763327 
 1402000    290.58692   -11426.407            0   -10561.088   -710.18925    751.32665    9.0909569    9.0909569    9.0909569    48.719933 
 1402100     288.0057    -11414.44            0   -10556.808   -11521.465    754.96761    9.1056183    9.1056183    9.1056183    32.324507 
 1402200    293.44526   -11425.233            0   -10551.403   -19325.309    757.75987    9.1168302    9.1168302    9.1168302    50.517659 
 1402300    288.40368   -11403.521            0   -10544.704   -25360.581    758.99717    9.1217896    9.1217896    9.1217896    51.927721 
 1402400      291.998   -11407.061            0    -10537.54   -35841.779    758.65572    9.1204215    9.1204215    9.1204215    42.494107 
 1402500    300.99431   -11426.794            0   -10530.484   -9823.5781    756.72517    9.1126788    9.1126788    9.1126788    57.373154 
 1402600    293.55806   -11396.444            0   -10522.278    4435.2565    753.84473    9.1011017    9.1011017    9.1011017    58.117887 
 1402700    297.60454   -11400.025            0    -10513.81    2105.6846    751.13853    9.0901981    9.0901981    9.0901981    36.851673 
 1402800    308.78418   -11427.805            0   -10508.299    10831.836    748.91144    9.0812052    9.0812052    9.0812052    49.872001 
 1402900    315.19137   -11441.189            0   -10502.603    24849.997    747.49808    9.0754888    9.0754888    9.0754888    44.658046 
 1403000    293.13081    -11371.32            0   -10498.426     26512.57     747.5167    9.0755642    9.0755642    9.0755642    46.652751 
 1403100     306.3757   -11409.849            0   -10497.514    21835.777     748.7257    9.0804543    9.0804543    9.0804543    52.415604 
 1403200    310.57412   -11423.188            0   -10498.351    9723.7061    750.51045    9.0876637    9.0876637    9.0876637    36.585665 
 1403300    302.42807   -11399.714            0   -10499.135    4622.7633    752.85325    9.0971099    9.0971099    9.0971099    55.159302 
 1403400    310.20345   -11425.142            0   -10501.409    -27643.47    755.41314    9.1074091    9.1074091    9.1074091    46.057509 
 1403500    291.30337   -11368.718            0   -10501.267   -13651.511    757.34613    9.1151706    9.1151706    9.1151706    43.060981 
 1403600    291.69555   -11370.947            0   -10502.328   -10276.458    758.05208     9.118002     9.118002     9.118002    52.852519 
 1403700    303.06307   -11406.509            0   -10504.039   -13390.186    757.63187    9.1163169    9.1163169    9.1163169    40.662906 
 1403800    298.26533   -11392.746            0   -10504.562    -3348.622    756.35352    9.1111867    9.1111867    9.1111867    48.027845 
 1403900    303.52361       -11410            0   -10506.159   -9118.7329    754.35641    9.1031604    9.1031604    9.1031604    51.642181 
 1404000    302.13829   -11406.019            0   -10506.302    4284.9133    751.76888    9.0927402    9.0927402    9.0927402     53.71987 
 1404100    304.60893   -11416.243            0   -10509.169    15785.119    749.39315    9.0831518    9.0831518    9.0831518    47.273436 
 1404200    308.38056   -11428.269            0   -10509.965    18996.484    747.68372    9.0762401    9.0762401    9.0762401    50.509123 
 1404300     302.6335   -11412.594            0   -10511.404    5354.8969    747.22022    9.0743642    9.0743642    9.0743642    43.443816 
 1404400     297.2106   -11398.597            0   -10513.554    12279.907    747.89036    9.0770762    9.0770762    9.0770762    52.573018 
 1404500    299.27898   -11407.076            0   -10515.874    1913.0372    749.21589    9.0824356    9.0824356    9.0824356    49.499105 
 1404600    291.51988   -11386.181            0   -10518.084    2751.3366    750.74799    9.0886224    9.0886224    9.0886224    54.120778 
 1404700    305.00973   -11428.867            0   -10520.601    5582.2203    752.54954    9.0958865    9.0958865    9.0958865    36.580337 
 1404800    298.37667   -11407.914            0     -10519.4   -12912.668     754.4137    9.1033909    9.1033909    9.1033909     50.55012 
 1404900    306.42098   -11433.578            0   -10521.109   -12411.526    755.63137     9.108286     9.108286     9.108286    54.396922 
 1405000    290.60601   -11383.833            0   -10518.458   -4780.2877    755.80536    9.1089851    9.1089851    9.1089851     44.19787 
 1405100    297.95283   -11404.945            0   -10517.692   -16260.741    755.32167    9.1070415    9.1070415    9.1070415    55.889416 
 1405200    298.36731   -11403.049            0   -10514.563    -3447.664    754.06342    9.1019817    9.1019817    9.1019817    56.270547 
 1405300    303.00826   -11414.647            0    -10512.34    10238.444    752.57552    9.0959912    9.0959912    9.0959912    41.386765 
 1405400    297.38306   -11394.394            0   -10508.838    4519.6932    751.35581    9.0910745    9.0910745    9.0910745    42.052524 
 1405500    303.07458   -11406.139            0   -10503.634    11488.805    750.26008    9.0866531    9.0866531    9.0866531    55.069172 
 1405600    304.03452   -11404.335            0   -10498.972   -131.92394    749.58682    9.0839342    9.0839342    9.0839342    43.185802 
 1405700    303.24942   -11392.764            0   -10489.739    1929.3928    749.18092    9.0822943    9.0822943    9.0822943    50.445256 
 1405800    304.71401   -11383.625            0   -10476.239    5014.2583    749.31932    9.0828535    9.0828535    9.0828535    47.147435 
 1405900    308.48924   -11376.421            0   -10457.793    24962.669    749.94118    9.0853654    9.0853654    9.0853654    41.665907 
 1406000    299.21886   -11329.964            0   -10438.942   -3004.4253    751.45646    9.0914804    9.0914804    9.0914804    53.102252 
 1406100    315.49111   -11366.255            0   -10426.776    1704.1874    753.13684    9.0982521    9.0982521    9.0982521     54.92553 
 1406200    303.94928   -11323.387            0   -10418.277   -704.95219     754.8069    9.1049721    9.1049721    9.1049721    32.466216 
 1406300     320.7089   -11370.734            0   -10415.718   -25475.826    756.54151    9.1119415    9.1119415    9.1119415    37.396941 
 1406400    312.85453   -11345.436            0   -10413.808   -20997.851    757.51581    9.1158513    9.1158513    9.1158513    41.688798 
 1406500    308.61517   -11334.916            0   -10415.913   -17849.066    757.54258    9.1159587    9.1159587    9.1159587    44.305558 
 1406600    314.87692   -11359.058            0   -10421.408    2474.5099    756.58419    9.1121128    9.1121128    9.1121128    48.515117 
 1406700    318.54208   -11379.207            0   -10430.644    -12089.68    754.98661    9.1056947    9.1056947    9.1056947    45.871571 
 1406800    300.21521   -11333.113            0   -10439.124    3209.5376     753.1175    9.0981742    9.0981742    9.0981742    51.466797 
 1406900    307.97826   -11368.957            0   -10451.851   -1635.7308    751.11152    9.0900891    9.0900891    9.0900891    46.617549 
 1407000     309.6747     -11386.1            0   -10463.941     16378.44    749.41495    9.0832399    9.0832399    9.0832399     33.83076 
 1407100    316.53686    -11416.42            0   -10473.827     24118.04    748.57874    9.0798602    9.0798602    9.0798602    49.879866 
 1407200    309.46388   -11404.734            0   -10483.203    13544.073     749.0622    9.0818145    9.0818145    9.0818145    49.461168 
 1407300    298.73738   -11381.885            0   -10492.296    14598.607    750.40323    9.0872309    9.0872309    9.0872309    43.841345 
 1407400    305.65377   -11410.015            0   -10499.831    3854.1099    752.28539    9.0948221    9.0948221    9.0948221    54.091417 
 1407500     297.8952   -11391.984            0   -10504.903   -5024.6781    754.39614    9.1033202    9.1033202    9.1033202    59.127494 
 1407600    298.89397   -11399.921            0   -10509.866   -16707.057    756.17163    9.1104562    9.1104562    9.1104562    42.356554 
 1407700    300.78773   -11411.254            0   -10515.559   -6059.6781    757.20753    9.1146145    9.1146145    9.1146145    54.538962 
 1407800    295.78484    -11399.26            0   -10518.463    -7136.615    757.30507    9.1150059    9.1150059    9.1150059    33.115943 
 1407900    293.95641   -11396.552            0     -10521.2    -32995.66     756.5096    9.1118133    9.1118133    9.1118133    44.252586 
 1408000    300.06983   -11417.861            0   -10524.304   -4710.1689    754.45568    9.1035597    9.1035597    9.1035597    47.035654 
 1408100    295.89474   -11406.126            0   -10525.002   -11197.751    751.65251     9.092271     9.092271     9.092271    48.336914 
 1408200    297.31547   -11412.362            0   -10527.007    9442.0901    748.94699    9.0813489    9.0813489    9.0813489    52.986397 
 1408300    310.01889    -11452.53            0   -10529.347    22171.393    746.92206     9.073157     9.073157     9.073157    50.854613 
 1408400    303.50182   -11435.963            0   -10532.186    23649.796    746.10123    9.0698322    9.0698322    9.0698322    49.395914 
 1408500    299.47852   -11427.003            0   -10535.207    19991.457    746.48826    9.0714002    9.0714002    9.0714002     54.79661 
 1408600    308.09705   -11457.108            0   -10539.648    7621.0098    747.97767    9.0774294    9.0774294    9.0774294    39.479297 
 1408700    294.67886   -11421.874            0   -10544.371    1999.9216    750.09451    9.0859846    9.0859846    9.0859846    59.059799 
 1408800    301.74796    -11447.69            0   -10549.136   -2596.6753    752.34403    9.0950584    9.0950584    9.0950584    51.376266 
 1408900    286.18184   -11405.006            0   -10552.805    -20476.09    754.25739    9.1027621    9.1027621    9.1027621    41.491565 
 1409000    291.23929   -11427.509            0   -10560.248   -17417.298    755.45067    9.1075599    9.1075599    9.1075599    46.448088 
 1409100     290.5708   -11433.745            0   -10568.475   -19448.434    755.78688    9.1089108    9.1089108    9.1089108    42.337532 
 1409200    294.19511   -11452.707            0   -10576.644   -30719.303    754.84681    9.1051326    9.1051326    9.1051326    46.302197 
 1409300    285.25004   -11432.705            0   -10583.279    -1831.553    752.74117    9.0966585    9.0966585    9.0966585    49.898588 
 1409400    293.22343   -11463.053            0   -10589.884    11555.703    750.01649    9.0856695    9.0856695    9.0856695    46.665717 
 1409500     290.1499   -11457.959            0   -10593.943    22571.101    747.44357    9.0752682    9.0752682    9.0752682    56.093493 
 1409600    299.93896   -11489.114            0   -10595.947    18989.281    745.74231    9.0683776    9.0683776    9.0683776    47.363724 
 1409700    293.69663   -11470.544            0   -10595.966    15230.794    745.22143    9.0662657    9.0662657    9.0662657    42.803323 
 1409800    290.02539   -11455.534            0   -10591.888    30512.049    746.05051    9.0696266    9.0696266    9.0696266    57.904806 
 1409900    296.07549   -11468.657            0   -10586.995    10822.495    748.40059    9.0791399    9.0791399    9.0791399    53.372148 
 1410000    296.04109   -11456.823            0   -10575.263   -3773.3853    751.65056    9.0922631    9.0922631    9.0922631    39.507133 
Loop time of 2184.59 on 16 procs for 100000 steps with 1000 atoms

Performance: 3.955 ns/day, 6.068 hours/ns, 45.775 timesteps/s
94.6% CPU use with 16 MPI tasks x no OpenMP threads

MPI task timing breakdown:
Section |  min time  |  avg time  |  max time  |%varavg| %total
---------------------------------------------------------------
Pair    | 220.26     | 229.57     | 241.33     |  45.7 | 10.51
Neigh   | 77.313     | 80.849     | 84.403     |  25.9 |  3.70
Comm    | 86.136     | 101.47     | 113.46     |  91.6 |  4.64
Output  | 1164.8     | 1202.8     | 1766.5     | 419.7 | 55.06
Modify  | 5.3229     | 569.12     | 607.1      | 610.2 | 26.05
Other   |            | 0.8272     |            |       |  0.04

Nlocal:    62.5 ave 69 max 56 min
Histogram: 1 2 2 1 1 2 4 1 1 1
Nghost:    1925.56 ave 1944 max 1908 min
Histogram: 1 1 1 2 4 1 4 0 1 1
Neighs:    0 ave 0 max 0 min
Histogram: 16 0 0 0 0 0 0 0 0 0
FullNghs:  19612.6 ave 21768 max 17596 min
Histogram: 1 2 2 1 1 3 3 2 0 1

Total # of neighbors = 313802
Ave neighs/atom = 313.802
Neighbor list builds = 100000
Dangerous builds not checked
Total wall time: 8:50:19
