LAMMPS (16 Mar 2018)
Reading data file ...
  orthogonal box = (-4.73104 -4.73104 -4.73104) to (4.73104 4.73104 4.73104)
  2 by 2 by 4 MPI processor grid
  reading atoms ...
  1000 atoms
Reading potential file /home/fs01/ajm529/lammps-16Mar18/potentials/sw_potentials/AG/eps2.23.sw with DATE: 2008-01-29
Neighbor list info ...
  update every 1 steps, delay 0 steps, check no
  max neighbors/atom: 2000, page size: 100000
  master list distance cutoff = 3.836
  ghost atom cutoff = 3.836
  binsize = 1.918, bins = 5 5 5
  1 neighbor lists, perpetual/occasional/extra = 1 0 0
  (1) pair sw, perpetual
      attributes: full, newton on
      pair build: full/bin/atomonly
      stencil: full/bin/3d
      bin: standard
Setting up Verlet run ...
  Unit style    : real
  Current step  : 0
  Time step     : 1
Per MPI rank memory allocation (min/avg/max) = 3.517 | 3.585 | 4.577 Mbytes
Step Temp E_pair E_mol TotEng Press Volume Lx Ly Lz S/CPU 
       0          300   -10089.488            0   -9196.1391   -28080.236    847.14915    9.4620802    9.4620802    9.4620802            0 
     100    318.40166    -10148.63            0   -9200.4842   -36285.744     845.0687    9.4543281    9.4543281    9.4543281    49.440817 
     200    320.51774   -10167.679            0   -9213.2324   -38955.934    839.23354    9.4325173    9.4325173    9.4325173     48.79903 
     300    314.86919   -10171.323            0   -9233.6965   -33646.392    830.47078    9.3995729    9.3995729    9.3995729    51.536877 
     400    324.80079   -10225.878            0   -9258.6767   -23213.878    819.75139    9.3589556    9.3589556    9.3589556    41.009859 
     500    320.66388   -10234.403            0    -9279.521   -19999.804    808.68402    9.3166466    9.3166466    9.3166466    47.340145 
     600    354.21991   -10353.574            0   -9298.7681    -4760.375    798.53805    9.2775194    9.2775194    9.2775194    50.933289 
     700    336.23994   -10314.734            0   -9313.4688    6665.7852    790.44753    9.2460808    9.2460808    9.2460808    52.832929 
     800    335.09548    -10328.42            0   -9330.5625    33632.866    784.85304    9.2242156    9.2242156    9.2242156    39.119663 
     900    333.60731   -10345.164            0   -9351.7384    29997.604    781.77873     9.212156     9.212156     9.212156    52.634225 
    1000    333.71863   -10366.986            0   -9373.2284    35698.584    780.63091    9.2076453    9.2076453    9.2076453    50.122838 
Loop time of 20.8704 on 16 procs for 1000 steps with 1000 atoms

Performance: 4.140 ns/day, 5.797 hours/ns, 47.915 timesteps/s
94.5% CPU use with 16 MPI tasks x no OpenMP threads

MPI task timing breakdown:
Section |  min time  |  avg time  |  max time  |%varavg| %total
---------------------------------------------------------------
Pair    | 1.7301     | 1.8182     | 1.967      |   4.0 |  8.71
Neigh   | 0.72419    | 0.75575    | 0.80225    |   2.2 |  3.62
Comm    | 0.66506    | 0.86133    | 0.98199    |   7.6 |  4.13
Output  | 11.264     | 11.648     | 17.344     |  43.1 | 55.81
Modify  | 0.08331    | 5.7783     | 6.1624     |  61.2 | 27.69
Other   |            | 0.008999   |            |       |  0.04

Nlocal:    62.5 ave 66 max 57 min
Histogram: 1 1 2 1 1 1 1 2 3 3
Nghost:    1875.94 ave 1904 max 1855 min
Histogram: 1 2 4 0 2 4 1 1 0 1
Neighs:    0 ave 0 max 0 min
Histogram: 16 0 0 0 0 0 0 0 0 0
FullNghs:  18897.9 ave 20156 max 17284 min
Histogram: 2 2 1 1 1 1 0 2 2 4

Total # of neighbors = 302366
Ave neighs/atom = 302.366
Neighbor list builds = 1000
Dangerous builds not checked
Setting up Verlet run ...
  Unit style    : real
  Current step  : 1000
  Time step     : 1
Per MPI rank memory allocation (min/avg/max) = 3.768 | 4.325 | 4.579 Mbytes
Step Temp E_pair E_mol TotEng Press Volume Lx Ly Lz S/CPU 
    1000    333.71863   -10366.986            0   -9373.2284    35698.584    780.63091    9.2076453    9.2076453    9.2076453            0 
    1100    321.73271    -10351.49            0   -9393.4248    19726.402    781.18591    9.2098269    9.2098269    9.2098269    45.043339 
    1200    313.63721   -10348.735            0   -9414.7774    17116.046    782.78955    9.2161246    9.2161246    9.2161246    45.072384 
    1300    311.25307   -10362.756            0   -9435.8977    7507.8964     785.1913    9.2255406    9.2255406    9.2255406    60.010985 
    1400    306.67989   -10368.273            0   -9455.0326    10040.424    787.89606    9.2361216    9.2361216    9.2361216    40.063816 
    1500    307.13343   -10388.077            0    -9473.486     -9823.69    790.50604    9.2463089    9.2463089    9.2463089    50.474325 
    1600    309.72378   -10411.961            0   -9489.6568   -601.22339    792.67961    9.2547757    9.2547757    9.2547757    47.249292 
    1700    310.22697   -10429.797            0    -9505.994   -14338.974    794.26947    9.2609589    9.2609589    9.2609589    56.928631 
    1800    303.27542   -10423.659            0   -9520.5569   -12139.053    794.88403    9.2633468    9.2633468    9.2633468     53.91099 
    1900    304.33045   -10440.818            0    -9534.574   -16050.703    794.67715    9.2625431    9.2625431    9.2625431     40.11932 
    2000     290.3699   -10411.703            0   -9547.0309   -16214.083    793.54796    9.2581538    9.2581538    9.2581538    55.053132 
Loop time of 20.6193 on 16 procs for 1000 steps with 1000 atoms

Performance: 4.190 ns/day, 5.728 hours/ns, 48.498 timesteps/s
94.5% CPU use with 16 MPI tasks x no OpenMP threads

MPI task timing breakdown:
Section |  min time  |  avg time  |  max time  |%varavg| %total
---------------------------------------------------------------
Pair    | 1.8089     | 1.9438     | 2.0553     |   4.7 |  9.43
Neigh   | 0.73918    | 0.77237    | 0.79577    |   2.0 |  3.75
Comm    | 0.73814    | 0.87205    | 1.0374     |   8.5 |  4.23
Output  | 11.908     | 12.228     | 16.962     |  35.0 | 59.30
Modify  | 0.058312   | 4.7944     | 5.1139     |  55.8 | 23.25
Other   |            | 0.009078   |            |       |  0.04

Nlocal:    62.5 ave 66 max 56 min
Histogram: 1 0 0 1 2 2 0 4 1 5
Nghost:    1846.81 ave 1869 max 1825 min
Histogram: 2 0 2 3 1 2 1 3 1 1
Neighs:    0 ave 0 max 0 min
Histogram: 16 0 0 0 0 0 0 0 0 0
FullNghs:  18597.2 ave 19874 max 16616 min
Histogram: 1 0 1 2 1 3 1 2 1 4

Total # of neighbors = 297556
Ave neighs/atom = 297.556
Neighbor list builds = 1000
Dangerous builds not checked
Setting up Verlet run ...
  Unit style    : real
  Current step  : 2000
  Time step     : 1
Per MPI rank memory allocation (min/avg/max) = 3.77 | 4.477 | 4.579 Mbytes
Step Temp E_pair E_mol TotEng Press Volume Lx Ly Lz S/CPU 
    2000     290.3699   -10411.703            0   -9547.0309   -16214.083    793.54796    9.2581538    9.2581538    9.2581538            0 
    2100    302.63228   -10461.796            0   -9560.6088   -3984.2984    791.45095    9.2499915    9.2499915    9.2499915    50.867481 
    2200    296.59158   -10455.428            0   -9572.2285   -3165.8896    788.66954     9.239143     9.239143     9.239143    52.634108 
    2300    308.11366   -10501.561            0    -9584.051   -8913.6577    785.54673    9.2269325    9.2269325    9.2269325    50.430458 
    2400    297.07843   -10479.206            0   -9594.5574   -2711.8054    782.03601    9.2131664    9.2131664    9.2131664    52.918369 
    2500    303.58338     -10509.1            0    -9605.081   -395.13109    778.64504    9.1998308    9.1998308    9.1998308     57.74185 
    2600    295.51036   -10494.282            0   -9614.3023    18254.437    775.72713    9.1883245    9.1883245    9.1883245    44.245223 
    2700    306.40546   -10536.067            0   -9623.6438    10848.324      773.738    9.1804642    9.1804642    9.1804642    52.758979 
    2800    300.35806   -10524.924            0   -9630.5094    11010.146    772.41013    9.1752094    9.1752094    9.1752094     42.88417 
    2900    292.70264   -10508.725            0   -9637.1065    5906.2189    771.68503    9.1723375    9.1723375    9.1723375    67.409292 
    3000     292.2616   -10513.533            0   -9643.2282    11020.169    771.59267    9.1719715    9.1719715    9.1719715    58.692448 
Loop time of 19.145 on 16 procs for 1000 steps with 1000 atoms

Performance: 4.513 ns/day, 5.318 hours/ns, 52.233 timesteps/s
94.6% CPU use with 16 MPI tasks x no OpenMP threads

MPI task timing breakdown:
Section |  min time  |  avg time  |  max time  |%varavg| %total
---------------------------------------------------------------
Pair    | 1.8677     | 2.0049     | 2.1122     |   5.1 | 10.47
Neigh   | 0.7423     | 0.78159    | 0.80696    |   2.1 |  4.08
Comm    | 0.74201    | 0.86325    | 1.0397     |   9.5 |  4.51
Output  | 10.475     | 10.789     | 15.435     |  36.5 | 56.35
Modify  | 0.050821   | 4.6975     | 5.0112     |  55.4 | 24.54
Other   |            | 0.009229   |            |       |  0.05

Nlocal:    62.5 ave 67 max 58 min
Histogram: 1 0 1 3 2 5 2 1 0 1
Nghost:    1870 ave 1889 max 1852 min
Histogram: 1 0 2 4 4 1 1 1 0 2
Neighs:    0 ave 0 max 0 min
Histogram: 16 0 0 0 0 0 0 0 0 0
FullNghs:  19109.5 ave 20652 max 17611 min
Histogram: 1 0 3 1 2 4 3 1 0 1

Total # of neighbors = 305752
Ave neighs/atom = 305.752
Neighbor list builds = 1000
Dangerous builds not checked
Setting up Verlet run ...
  Unit style    : real
  Current step  : 3000
  Time step     : 1
Per MPI rank memory allocation (min/avg/max) = 3.77 | 4.527 | 4.58 Mbytes
Step Temp E_pair E_mol TotEng Press Volume Lx Ly Lz S/CPU 
    3000     292.2616   -10513.533            0   -9643.2282    11020.169    771.59267    9.1719715    9.1719715    9.1719715            0 
    3100    289.50422   -10509.765            0   -9647.6713    7560.2171    771.98774    9.1735366    9.1735366    9.1735366    58.464657 
    3200    293.40531   -10526.684            0   -9652.9732    16025.221    772.75008    9.1765553    9.1765553    9.1765553    62.959625 
    3300    305.40347   -10567.757            0   -9658.3175   -962.82987    774.06824    9.1817701    9.1817701    9.1817701    53.129553 
    3400    290.61587   -10526.434            0   -9661.0295    4743.9938    775.74025    9.1883763    9.1883763    9.1883763    61.208352 
    3500    301.28925   -10562.563            0   -9665.3748    2704.7236    777.72452     9.196204     9.196204     9.196204     48.50267 
    3600    284.86474   -10514.047            0   -9665.7683    1419.9363    779.97991     9.205085     9.205085     9.205085    46.693916 
    3700    296.79143   -10549.539            0   -9665.7453   -3363.4485    782.20597    9.2138338    9.2138338    9.2138338    55.349927 
    3800    294.84492   -10541.906            0   -9663.9086   -10973.485    784.00333    9.2208856    9.2208856    9.2208856    64.220228 
    3900    290.83897   -10526.031            0   -9659.9625   -3005.7999    784.81292    9.2240585    9.2240585    9.2240585    85.418507 
    4000    280.61394   -10488.877            0   -9653.2562   -10691.275    784.97803    9.2247053    9.2247053    9.2247053    65.971219 
Loop time of 17.0684 on 16 procs for 1000 steps with 1000 atoms

Performance: 5.062 ns/day, 4.741 hours/ns, 58.588 timesteps/s
94.7% CPU use with 16 MPI tasks x no OpenMP threads

MPI task timing breakdown:
Section |  min time  |  avg time  |  max time  |%varavg| %total
---------------------------------------------------------------
Pair    | 1.8646     | 1.9913     | 2.0776     |   3.5 | 11.67
Neigh   | 0.74718    | 0.77929    | 0.80206    |   1.4 |  4.57
Comm    | 0.75472    | 0.86243    | 1.021      |   6.5 |  5.05
Output  | 8.6998     | 8.9938     | 13.348     |  37.5 | 52.69
Modify  | 0.077442   | 4.4325     | 4.7267     |  53.4 | 25.97
Other   |            | 0.009135   |            |       |  0.05

Nlocal:    62.5 ave 67 max 57 min
Histogram: 1 0 3 0 1 2 3 2 1 3
Nghost:    1870.62 ave 1904 max 1837 min
Histogram: 1 0 3 2 3 2 2 0 0 3
Neighs:    0 ave 0 max 0 min
Histogram: 16 0 0 0 0 0 0 0 0 0
FullNghs:  18793.1 ave 20158 max 17031 min
Histogram: 1 1 2 1 0 5 1 1 1 3

Total # of neighbors = 300690
Ave neighs/atom = 300.69
Neighbor list builds = 1000
Dangerous builds not checked
Setting up Verlet run ...
  Unit style    : real
  Current step  : 4000
  Time step     : 1
Per MPI rank memory allocation (min/avg/max) = 4.576 | 4.578 | 4.58 Mbytes
Step Temp E_pair E_mol TotEng Press Volume Lx Ly Lz S/CPU 
    4000    280.61394   -10488.877            0   -9653.2562   -10691.275    784.97803    9.2247053    9.2247053    9.2247053            0 
    4100    306.73666   -10560.198            0    -9646.789   -13014.988    784.57885    9.2231414    9.2231414    9.2231414    75.118646 
    4200    303.03642   -10539.868            0   -9637.4777    5325.4442    783.97251    9.2207648    9.2207648    9.2207648    60.919025 
    4300    298.96383   -10516.275            0    -9626.012   -2355.7512     783.6107    9.2193461    9.2193461    9.2193461    73.435113 
    4400    302.50099   -10517.516            0   -9616.7201    8515.5617    783.04723    9.2171358    9.2171358    9.2171358    61.007594 
    4500    295.35493   -10486.297            0   -9606.7802   -983.81756    782.49894     9.214984     9.214984     9.214984    75.247536 
    4600     298.4017   -10485.719            0   -9597.1295   -637.16836    782.55174    9.2151913    9.2151913    9.2151913    70.179124 
    4700    304.52173    -10496.47            0   -9589.6562   -4872.1629    782.81351    9.2162187    9.2162187    9.2162187    69.541785 
    4800     299.3421   -10473.659            0   -9582.2689      9315.04    782.88782    9.2165103    9.2165103    9.2165103     64.16752 
    4900    303.71636   -10480.755            0   -9576.3391   -3362.3027     783.0012    9.2169552    9.2169552    9.2169552     80.09529 
    5000    304.78986   -10478.699            0   -9571.0871   -1862.7193    782.70422    9.2157898    9.2157898    9.2157898    75.535446 
Loop time of 14.2963 on 16 procs for 1000 steps with 1000 atoms

Performance: 6.044 ns/day, 3.971 hours/ns, 69.948 timesteps/s
94.9% CPU use with 16 MPI tasks x no OpenMP threads

MPI task timing breakdown:
Section |  min time  |  avg time  |  max time  |%varavg| %total
---------------------------------------------------------------
Pair    | 1.821      | 1.965      | 2.0619     |   4.9 | 13.75
Neigh   | 0.73494    | 0.77255    | 0.80441    |   2.2 |  5.40
Comm    | 0.73849    | 0.86498    | 1.0468     |   9.3 |  6.05
Output  | 7.4101     | 7.6152     | 10.635     |  28.3 | 53.27
Modify  | 0.04927    | 3.0694     | 3.2744     |  44.5 | 21.47
Other   |            | 0.009107   |            |       |  0.06

Nlocal:    62.5 ave 65 max 59 min
Histogram: 2 1 0 1 0 2 5 0 3 2
Nghost:    1843.56 ave 1865 max 1817 min
Histogram: 1 1 2 2 0 2 2 2 1 3
Neighs:    0 ave 0 max 0 min
Histogram: 16 0 0 0 0 0 0 0 0 0
FullNghs:  18866.2 ave 19933 max 17628 min
Histogram: 2 0 2 1 0 2 3 4 1 1

Total # of neighbors = 301860
Ave neighs/atom = 301.86
Neighbor list builds = 1000
Dangerous builds not checked
Setting up Verlet run ...
  Unit style    : real
  Current step  : 5000
  Time step     : 1
Per MPI rank memory allocation (min/avg/max) = 4.576 | 4.578 | 4.58 Mbytes
Step Temp E_pair E_mol TotEng Press Volume Lx Ly Lz S/CPU 
    5000    304.78986   -10478.699            0   -9571.0871   -1862.7193    782.70422    9.2157898    9.2157898    9.2157898            0 
    5100    304.06765   -10472.508            0   -9567.0464   -2408.1302    782.06771    9.2132909    9.2132909    9.2132909    57.350084 
    5200    311.23108   -10490.937            0   -9564.1442   -5227.3574    780.93917    9.2088571    9.2088571    9.2088571    66.392492 
    5300    304.17068   -10467.112            0   -9561.3435    3943.0574    779.76944     9.204257     9.204257     9.204257    64.203191 
    5400    301.90503   -10458.953            0   -9559.9312    6476.0921    778.85624    9.2006625    9.2006625    9.2006625    47.025187 
    5500    305.17811   -10468.909            0   -9560.1407    10957.931    778.10235     9.197693     9.197693     9.197693    52.634705 
    5600    315.08135   -10501.615            0   -9563.3567     14816.07    777.82324    9.1965931    9.1965931    9.1965931    49.009565 
    5700    304.48968   -10474.412            0   -9567.6933    18079.362    778.86588    9.2007005    9.2007005    9.2007005    61.604428 
    5800    306.57648   -10489.098            0   -9576.1651    11168.317    780.96304     9.208951     9.208951     9.208951     40.58446 
    5900    308.93509   -10507.355            0   -9587.3993    2830.3535    783.51266    9.2189616    9.2189616    9.2189616    44.995424 
    6000    295.45648   -10479.544            0   -9599.7249    2603.7156    785.87471    9.2282164    9.2282164    9.2282164    52.716413 
Loop time of 19.0809 on 16 procs for 1000 steps with 1000 atoms

Performance: 4.528 ns/day, 5.300 hours/ns, 52.408 timesteps/s
94.6% CPU use with 16 MPI tasks x no OpenMP threads

MPI task timing breakdown:
Section |  min time  |  avg time  |  max time  |%varavg| %total
---------------------------------------------------------------
Pair    | 1.8862     | 1.982      | 2.1582     |   5.2 | 10.39
Neigh   | 0.74269    | 0.7746     | 0.8206     |   2.5 |  4.06
Comm    | 0.73314    | 0.95156    | 1.0697     |   9.3 |  4.99
Output  | 9.6971     | 10.05      | 15.279     |  42.6 | 52.67
Modify  | 0.079658   | 5.3139     | 5.6798     |  58.6 | 27.85
Other   |            | 0.009153   |            |       |  0.05

Nlocal:    62.5 ave 66 max 58 min
Histogram: 1 0 2 2 0 3 3 2 1 2
Nghost:    1852 ave 1876 max 1833 min
Histogram: 2 1 4 1 1 2 3 0 0 2
Neighs:    0 ave 0 max 0 min
Histogram: 16 0 0 0 0 0 0 0 0 0
FullNghs:  18768.8 ave 20016 max 17397 min
Histogram: 1 1 1 2 2 4 0 3 0 2

Total # of neighbors = 300300
Ave neighs/atom = 300.3
Neighbor list builds = 1000
Dangerous builds not checked
Setting up Verlet run ...
  Unit style    : real
  Current step  : 6000
  Time step     : 1
Per MPI rank memory allocation (min/avg/max) = 4.576 | 4.578 | 4.58 Mbytes
Step Temp E_pair E_mol TotEng Press Volume Lx Ly Lz S/CPU 
    6000    295.45648   -10479.544            0   -9599.7249    2603.7156    785.87471    9.2282164    9.2282164    9.2282164            0 
    6100    286.92142   -10467.229            0    -9612.826   -30245.046     787.5532    9.2347817    9.2347817    9.2347817    50.516454 
    6200      286.167   -10476.619            0   -9624.4622   -19405.275    787.79927    9.2357434    9.2357434    9.2357434     45.31607 
    6300    296.26657   -10516.791            0     -9634.56   -8660.4787    786.93473    9.2323637    9.2323637    9.2323637    49.890639 
    6400    290.02416   -10503.884            0   -9640.2415   -1986.7312    785.35323    9.2261748    9.2261748    9.2261748    48.054151 
    6500    303.32367   -10547.301            0   -9644.0549   -10238.944    783.31047    9.2181685    9.2181685    9.2181685    53.514265 
    6600    289.83339   -10506.594            0   -9643.5196    4274.6158    781.06092    9.2093357    9.2093357    9.2093357    56.917541 
    6700    293.90095   -10519.879            0   -9644.6922    6587.2443    778.67061    9.1999315    9.1999315    9.1999315    55.631334 
    6800    291.43448   -10510.379            0   -9642.5365    4350.8328    776.51516    9.1914348    9.1914348    9.1914348     47.43701 
    6900    301.65788   -10538.782            0   -9640.4967    23728.802    774.90838    9.1850908    9.1850908    9.1850908    57.822722 
    7000    294.75939   -10515.121            0    -9637.378    10155.114    774.53039    9.1835971    9.1835971    9.1835971    45.659907 
Loop time of 19.7224 on 16 procs for 1000 steps with 1000 atoms

Performance: 4.381 ns/day, 5.478 hours/ns, 50.704 timesteps/s
94.5% CPU use with 16 MPI tasks x no OpenMP threads

MPI task timing breakdown:
Section |  min time  |  avg time  |  max time  |%varavg| %total
---------------------------------------------------------------
Pair    | 1.5046     | 1.6591     | 2.062      |  10.1 |  8.41
Neigh   | 0.63666    | 0.6791     | 0.79438    |   4.6 |  3.44
Comm    | 0.5245     | 1.0423     | 1.2379     |  16.4 |  5.28
Output  | 11.058     | 11.393     | 16.29      |  37.5 | 57.76
Modify  | 0.042454   | 4.9407     | 5.2757     |  56.9 | 25.05
Other   |            | 0.008551   |            |       |  0.04

Nlocal:    62.5 ave 71 max 55 min
Histogram: 1 1 2 2 2 3 3 0 1 1
Nghost:    1862.12 ave 1892 max 1844 min
Histogram: 4 2 1 2 1 1 3 1 0 1
Neighs:    0 ave 0 max 0 min
Histogram: 16 0 0 0 0 0 0 0 0 0
FullNghs:  19053.5 ave 21707 max 16607 min
Histogram: 1 1 2 2 3 2 3 0 1 1

Total # of neighbors = 304856
Ave neighs/atom = 304.856
Neighbor list builds = 1000
Dangerous builds not checked
Setting up Verlet run ...
  Unit style    : real
  Current step  : 7000
  Time step     : 1
Per MPI rank memory allocation (min/avg/max) = 4.576 | 4.578 | 4.58 Mbytes
Step Temp E_pair E_mol TotEng Press Volume Lx Ly Lz S/CPU 
    7000    294.75939   -10515.121            0    -9637.378    10155.114    774.53039    9.1835971    9.1835971    9.1835971            0 
    7100    307.05153   -10549.198            0   -9634.8514    14136.984    775.06365    9.1857042    9.1857042    9.1857042    57.399033 
    7200    291.15968   -10498.618            0   -9631.5945    14711.251    776.23619     9.190334     9.190334     9.190334    59.441658 
    7300    306.38467   -10542.437            0   -9630.0756    2139.3423    778.04173    9.1974541    9.1974541    9.1974541    46.965726 
    7400    309.59484   -10549.787            0   -9627.8666    2715.1164    779.96214    9.2050151    9.2050151    9.2050151     62.42922 
    7500    303.18779   -10529.384            0   -9626.5427    2999.2028    781.82958    9.2123557    9.2123557    9.2123557    60.617395 
    7600    284.69781   -10471.358            0   -9623.5767    4221.0108    783.76966    9.2199695    9.2199695    9.2199695    56.633027 
    7700     300.7157   -10515.437            0   -9619.9569    -11320.62    785.95231    9.2285202    9.2285202    9.2285202    73.705719 
    7800    283.75077   -10458.048            0   -9613.0867   -9006.1395    787.77889    9.2356638    9.2356638    9.2356638    64.814879 
    7900    310.03167   -10529.693            0   -9606.4713   -6986.8631    788.77157    9.2395414    9.2395414    9.2395414    64.762957 
    8000    314.46477   -10531.012            0   -9594.5901   -6218.1508    788.84111    9.2398129    9.2398129    9.2398129    75.720906 
Loop time of 16.3353 on 16 procs for 1000 steps with 1000 atoms

Performance: 5.289 ns/day, 4.538 hours/ns, 61.217 timesteps/s
94.7% CPU use with 16 MPI tasks x no OpenMP threads

MPI task timing breakdown:
Section |  min time  |  avg time  |  max time  |%varavg| %total
---------------------------------------------------------------
Pair    | 1.3332     | 1.5069     | 2.0358     |  13.9 |  9.22
Neigh   | 0.5785     | 0.63266    | 0.79356    |   6.6 |  3.87
Comm    | 0.47629    | 1.1661     | 1.3951     |  20.6 |  7.14
Output  | 8.9107     | 9.1693     | 12.995     |  32.6 | 56.13
Modify  | 0.025191   | 3.8521     | 4.1115     |  50.3 | 23.58
Other   |            | 0.00827    |            |       |  0.05

Nlocal:    62.5 ave 67 max 57 min
Histogram: 1 0 0 2 4 1 3 0 3 2
Nghost:    1848.62 ave 1860 max 1836 min
Histogram: 2 0 1 2 2 4 0 2 0 3
Neighs:    0 ave 0 max 0 min
Histogram: 16 0 0 0 0 0 0 0 0 0
FullNghs:  18723 ave 19894 max 17144 min
Histogram: 1 0 1 2 4 0 3 1 2 2

Total # of neighbors = 299568
Ave neighs/atom = 299.568
Neighbor list builds = 1000
Dangerous builds not checked
Setting up Verlet run ...
  Unit style    : real
  Current step  : 8000
  Time step     : 1
Per MPI rank memory allocation (min/avg/max) = 4.576 | 4.578 | 4.58 Mbytes
Step Temp E_pair E_mol TotEng Press Volume Lx Ly Lz S/CPU 
    8000    314.46477   -10531.012            0   -9594.5901   -6218.1508    788.84111    9.2398129    9.2398129    9.2398129            0 
    8100    309.33149    -10502.77            0   -9581.6336   -14383.145    788.32082    9.2377811    9.2377811    9.2377811     69.82547 
    8200    301.61512   -10465.263            0   -9567.1046   -4109.0106    787.28214    9.2337221    9.2337221    9.2337221    53.754313 
    8300    300.31161   -10448.094            0   -9553.8178   -7154.3554    785.69083    9.2274966    9.2274966    9.2274966    54.796942 
    8400     299.0178   -10434.932            0   -9544.5077    3391.7561    783.59169    9.2192715    9.2192715    9.2192715    60.129057 
    8500    313.52759   -10473.752            0   -9540.1206   -1258.6669    781.54322    9.2112309    9.2112309    9.2112309    63.754259 
    8600    318.08637    -10484.59            0   -9537.3827    13489.999    779.72135    9.2040678    9.2040678    9.2040678    62.328207 
    8700     307.0162   -10451.414            0   -9537.1724     4962.139     779.0747    9.2015226    9.2015226    9.2015226    50.640869 
    8800    324.04244   -10505.292            0   -9540.3492    3512.7987    779.24602    9.2021971    9.2021971    9.2021971    69.122394 
    8900    299.82778   -10435.674            0   -9542.8384   -4432.1835    779.81036     9.204418     9.204418     9.204418    51.053845 
    9000    298.01997   -10434.648            0   -9547.1951    797.39119    780.44801    9.2069261    9.2069261    9.2069261    51.212887 
Loop time of 17.2862 on 16 procs for 1000 steps with 1000 atoms

Performance: 4.998 ns/day, 4.802 hours/ns, 57.850 timesteps/s
94.7% CPU use with 16 MPI tasks x no OpenMP threads

MPI task timing breakdown:
Section |  min time  |  avg time  |  max time  |%varavg| %total
---------------------------------------------------------------
Pair    | 1.33       | 1.5768     | 2.2064     |  16.4 |  9.12
Neigh   | 0.57564    | 0.65687    | 0.85854    |   8.2 |  3.80
Comm    | 0.42897    | 1.2612     | 1.59       |  24.3 |  7.30
Output  | 9.114      | 9.4075     | 13.756     |  36.6 | 54.42
Modify  | 0.026984   | 4.3754     | 4.669      |  53.7 | 25.31
Other   |            | 0.008407   |            |       |  0.05

Nlocal:    62.5 ave 66 max 57 min
Histogram: 1 1 0 0 2 4 2 2 3 1
Nghost:    1862.94 ave 1869 max 1858 min
Histogram: 3 3 2 0 1 1 1 1 1 3
Neighs:    0 ave 0 max 0 min
Histogram: 16 0 0 0 0 0 0 0 0 0
FullNghs:  18912.6 ave 20022 max 17258 min
Histogram: 2 0 0 0 2 4 2 2 3 1

Total # of neighbors = 302602
Ave neighs/atom = 302.602
Neighbor list builds = 1000
Dangerous builds not checked
Setting up Verlet run ...
  Unit style    : real
  Current step  : 9000
  Time step     : 1
Per MPI rank memory allocation (min/avg/max) = 4.576 | 4.578 | 4.58 Mbytes
Step Temp E_pair E_mol TotEng Press Volume Lx Ly Lz S/CPU 
    9000    298.01997   -10434.648            0   -9547.1951    797.39119    780.44801    9.2069261    9.2069261    9.2069261            0 
    9100    301.30403   -10447.604            0   -9550.3718     986.4494    781.24757    9.2100692    9.2100692    9.2100692     63.51043 
    9200    297.34695   -10440.176            0   -9554.7278    66.992397    782.40013    9.2145961    9.2145961    9.2145961    51.389076 
    9300     296.5688   -10442.321            0   -9559.1893   -14657.339    783.99849    9.2208667    9.2208667    9.2208667    62.311246 
    9400    311.73312   -10493.349            0   -9565.0612    11333.909    785.76604     9.227791     9.227791     9.227791      60.3731 
    9500    309.46858   -10491.805            0   -9570.2602    816.14613    787.81475    9.2358039    9.2358039    9.2358039    50.516176 
    9600     302.9311   -10479.121            0   -9577.0441   -3250.8123    789.96969    9.2442172    9.2442172    9.2442172    65.923215 
    9700    290.68049   -10449.062            0   -9583.4654    7796.4407    791.97903    9.2520484    9.2520484    9.2520484    52.010379 
    9800     304.5883   -10498.675            0   -9591.6627   -1065.3952    793.89524    9.2595042    9.2595042    9.2595042    59.873226 
    9900    296.52614   -10481.778            0   -9598.7734   -10038.176    795.38526    9.2652935    9.2652935    9.2652935    56.452761 
   10000    294.82078   -10483.637            0    -9605.711   -18740.835    795.79378    9.2668794    9.2668794    9.2668794    45.703952 
Loop time of 17.8305 on 16 procs for 1000 steps with 1000 atoms

Performance: 4.846 ns/day, 4.953 hours/ns, 56.084 timesteps/s
94.6% CPU use with 16 MPI tasks x no OpenMP threads

MPI task timing breakdown:
Section |  min time  |  avg time  |  max time  |%varavg| %total
---------------------------------------------------------------
Pair    | 1.2687     | 1.5449     | 2.1523     |  15.9 |  8.66
Neigh   | 0.56468    | 0.65336    | 0.84743    |   7.9 |  3.66
Comm    | 0.41383    | 1.2158     | 1.5809     |  23.7 |  6.82
Output  | 9.5245     | 9.8314     | 14.381     |  37.5 | 55.14
Modify  | 0.026536   | 4.5766     | 4.8838     |  54.9 | 25.67
Other   |            | 0.008353   |            |       |  0.05

Nlocal:    62.5 ave 68 max 56 min
Histogram: 1 0 2 1 2 4 1 3 1 1
Nghost:    1839.56 ave 1859 max 1817 min
Histogram: 1 0 2 3 1 3 1 2 2 1
Neighs:    0 ave 0 max 0 min
Histogram: 16 0 0 0 0 0 0 0 0 0
FullNghs:  18549.9 ave 20435 max 16429 min
Histogram: 1 0 1 4 1 2 2 4 0 1

Total # of neighbors = 296798
Ave neighs/atom = 296.798
Neighbor list builds = 1000
Dangerous builds not checked
Setting up Verlet run ...
  Unit style    : real
  Current step  : 10000
  Time step     : 1
Per MPI rank memory allocation (min/avg/max) = 4.576 | 4.578 | 4.58 Mbytes
Step Temp E_pair E_mol TotEng Press Volume Lx Ly Lz S/CPU 
   10000    294.82078   -10483.637            0    -9605.711   -18740.835    795.79378    9.2668794    9.2668794    9.2668794            0 
   10100    296.82189   -10496.449            0   -9612.5637   -13489.468    794.97424    9.2636972    9.2636972    9.2636972    50.236542 
   10200      297.458   -10503.853            0   -9618.0743   -17062.063    793.09449      9.25639      9.25639      9.25639    60.653073 
   10300    302.16368   -10523.013            0   -9623.2208   -16416.122    790.45064    9.2460929    9.2460929    9.2460929    46.771878 
   10400     296.2759   -10508.138            0   -9625.8786   -16722.676    786.77552     9.231741     9.231741     9.231741    52.373895 
   10500    298.57501   -10517.203            0   -9628.0979   -15457.179    782.57191    9.2152704    9.2152704    9.2152704     45.62712 
   10600     297.2547   -10514.128            0   -9628.9538    21.641164    778.19479    9.1980572    9.1980572    9.1980572    56.524321 
   10700    296.27409   -10511.199            0   -9628.9456    14228.385    774.28007    9.1826076    9.1826076    9.1826076    50.209631 
   10800    290.62224   -10492.509            0   -9627.0856     25633.59    771.28062    9.1707349    9.1707349    9.1707349    53.198175 
   10900    304.32025   -10532.655            0   -9626.4416    26565.641    769.71285     9.164517     9.164517     9.164517    56.765931 
   11000    313.33833   -10560.054            0   -9626.9863    17957.481    770.04171    9.1658219    9.1658219    9.1658219    47.143928 
Loop time of 19.4017 on 16 procs for 1000 steps with 1000 atoms

Performance: 4.453 ns/day, 5.389 hours/ns, 51.542 timesteps/s
94.6% CPU use with 16 MPI tasks x no OpenMP threads

MPI task timing breakdown:
Section |  min time  |  avg time  |  max time  |%varavg| %total
---------------------------------------------------------------
Pair    | 1.3375     | 1.5701     | 2.1641     |  19.0 |  8.09
Neigh   | 0.57509    | 0.65393    | 0.83747    |   9.6 |  3.37
Comm    | 0.46173    | 1.2401     | 1.5483     |  28.3 |  6.39
Output  | 10.565     | 10.902     | 15.902     |  39.1 | 56.19
Modify  | 0.027348   | 5.0268     | 5.364      |  57.6 | 25.91
Other   |            | 0.008384   |            |       |  0.04

Nlocal:    62.5 ave 69 max 57 min
Histogram: 3 0 1 2 2 4 0 3 0 1
Nghost:    1874.12 ave 1886 max 1863 min
Histogram: 1 2 1 3 1 2 3 1 1 1
Neighs:    0 ave 0 max 0 min
Histogram: 16 0 0 0 0 0 0 0 0 0
FullNghs:  19155.4 ave 21094 max 17353 min
Histogram: 3 0 1 2 3 0 3 2 1 1

Total # of neighbors = 306486
Ave neighs/atom = 306.486
Neighbor list builds = 1000
Dangerous builds not checked
Setting up Verlet run ...
  Unit style    : real
  Current step  : 11000
  Time step     : 1
Per MPI rank memory allocation (min/avg/max) = 4.576 | 4.578 | 4.58 Mbytes
Step Temp E_pair E_mol TotEng Press Volume Lx Ly Lz S/CPU 
   11000    313.33833   -10560.054            0   -9626.9863    17957.481    770.04171    9.1658219    9.1658219    9.1658219            0 
   11100    296.47067   -10509.179            0   -9626.3399    23522.621    772.22796    9.1744881    9.1744881    9.1744881    55.906798 
   11200    293.58699   -10501.545            0   -9627.2933    14800.392    775.90566    9.1890294    9.1890294    9.1890294    61.351925 
   11300    299.83922   -10522.019            0   -9629.1489    15723.146    780.64868    9.2077152    9.2077152    9.2077152    49.146885 
   11400    297.11601   -10514.266            0   -9629.5052   -4284.5239    785.73911    9.2276856    9.2276856    9.2276856    62.574348 
   11500     296.2847   -10509.371            0   -9627.0853    4348.9338    790.25399    9.2453261    9.2453261    9.2453261    67.653666 
   11600    296.09769   -10506.866            0   -9625.1379   -5217.8525    793.98071    9.2598365    9.2598365    9.2598365     52.33777 
   11700    302.90568   -10523.695            0   -9621.6935   -25404.389    796.48274    9.2695529    9.2695529    9.2695529    62.794372 
   11800    289.37034   -10480.205            0   -9618.5097   -17478.039     797.0006    9.2715615    9.2715615    9.2715615    56.578267 
   11900    299.73406   -10508.489            0   -9615.9327   -34319.759    795.63074    9.2662465    9.2662465    9.2662465    69.877966 
   12000    297.57819   -10499.173            0   -9613.0363   -26507.061    792.24361    9.2530786    9.2530786    9.2530786    72.867101 
Loop time of 16.6036 on 16 procs for 1000 steps with 1000 atoms

Performance: 5.204 ns/day, 4.612 hours/ns, 60.228 timesteps/s
94.7% CPU use with 16 MPI tasks x no OpenMP threads

MPI task timing breakdown:
Section |  min time  |  avg time  |  max time  |%varavg| %total
---------------------------------------------------------------
Pair    | 1.2839     | 1.5325     | 2.03       |  13.4 |  9.23
Neigh   | 0.57395    | 0.64659    | 0.79751    |   6.5 |  3.89
Comm    | 0.53325    | 1.1814     | 1.5014     |  20.1 |  7.12
Output  | 8.6548     | 8.9427     | 13.208     |  36.8 | 53.86
Modify  | 0.02555    | 4.2921     | 4.5813     |  53.2 | 25.85
Other   |            | 0.008331   |            |       |  0.05

Nlocal:    62.5 ave 67 max 57 min
Histogram: 2 1 2 0 1 0 3 2 1 4
Nghost:    1840.69 ave 1865 max 1815 min
Histogram: 1 1 1 1 3 4 1 0 3 1
Neighs:    0 ave 0 max 0 min
Histogram: 16 0 0 0 0 0 0 0 0 0
FullNghs:  18609.5 ave 20130 max 16688 min
Histogram: 2 1 2 0 1 1 2 2 3 2

Total # of neighbors = 297752
Ave neighs/atom = 297.752
Neighbor list builds = 1000
Dangerous builds not checked
Setting up Verlet run ...
  Unit style    : real
  Current step  : 12000
  Time step     : 1
Per MPI rank memory allocation (min/avg/max) = 4.576 | 4.578 | 4.58 Mbytes
Step Temp E_pair E_mol TotEng Press Volume Lx Ly Lz S/CPU 
   12000    297.57819   -10499.173            0   -9613.0363   -26507.061    792.24361    9.2530786    9.2530786    9.2530786            0 
   12100    306.42694   -10523.473            0   -9610.9854    1489.5942    787.96953    9.2364087    9.2364087    9.2364087    53.534724 
   12200    299.31337    -10499.04            0   -9607.7362     12727.99    783.77178    9.2199778    9.2199778    9.2199778    61.417204 
   12300    295.76445    -10485.18            0   -9604.4437    2133.1582    780.26037    9.2061882    9.2061882    9.2061882    79.936612 
   12400    297.14017   -10485.823            0   -9600.9899    11242.874     777.5574    9.1955453    9.1955453    9.1955453    47.928479 
   12500    293.90861   -10475.163            0   -9599.9537   -5251.2755    775.82893    9.1887265    9.1887265    9.1887265    66.422171 
   12600      300.312   -10494.781            0   -9600.5031    13641.594    774.56323    9.1837269    9.1837269    9.1837269    79.152795 
   12700    301.79674   -10499.014            0   -9600.3149    5954.4164    774.14408      9.18207      9.18207      9.18207    67.872948 
   12800    300.52875   -10495.454            0   -9600.5304    15584.948    774.72866    9.1843806    9.1843806    9.1843806    72.881821 
   12900     294.9981   -10479.895            0   -9601.4414    15017.261    776.42649     9.191085     9.191085     9.191085    87.320607 
   13000    297.25021   -10488.914            0    -9603.754    -754.5881    778.99832     9.201222     9.201222     9.201222    73.111964 
Loop time of 14.9609 on 16 procs for 1000 steps with 1000 atoms

Performance: 5.775 ns/day, 4.156 hours/ns, 66.841 timesteps/s
94.8% CPU use with 16 MPI tasks x no OpenMP threads

MPI task timing breakdown:
Section |  min time  |  avg time  |  max time  |%varavg| %total
---------------------------------------------------------------
Pair    | 1.312      | 1.5369     | 2.1572     |  15.2 | 10.27
Neigh   | 0.57679    | 0.64105    | 0.83285    |   7.3 |  4.28
Comm    | 0.41084    | 1.2227     | 1.5103     |  22.3 |  8.17
Output  | 7.6798     | 7.9234     | 11.525     |  33.0 | 52.96
Modify  | 0.025148   | 3.6286     | 3.8735     |  48.8 | 24.25
Other   |            | 0.008297   |            |       |  0.06

Nlocal:    62.5 ave 67 max 57 min
Histogram: 1 0 2 2 2 1 1 3 0 4
Nghost:    1855.69 ave 1868 max 1841 min
Histogram: 1 1 2 0 4 1 1 2 2 2
Neighs:    0 ave 0 max 0 min
Histogram: 16 0 0 0 0 0 0 0 0 0
FullNghs:  18927.2 ave 20349 max 17197 min
Histogram: 1 0 3 3 1 1 2 1 1 3

Total # of neighbors = 302836
Ave neighs/atom = 302.836
Neighbor list builds = 1000
Dangerous builds not checked
Setting up Verlet run ...
  Unit style    : real
  Current step  : 13000
  Time step     : 1
Per MPI rank memory allocation (min/avg/max) = 4.576 | 4.578 | 4.58 Mbytes
Step Temp E_pair E_mol TotEng Press Volume Lx Ly Lz S/CPU 
   13000    297.25021   -10488.914            0    -9603.754    -754.5881    778.99832     9.201222     9.201222     9.201222            0 
   13100    303.81899    -10511.34            0   -9606.6191    4543.4514    782.19776    9.2138016    9.2138016    9.2138016    60.581594 
   13200    302.46144   -10510.737            0   -9610.0588   -2215.1853    785.40339    9.2263712    9.2263712    9.2263712    76.611208 
   13300    302.74018   -10516.544            0   -9615.0358   -11834.716    788.30499    9.2377192    9.2377192    9.2377192    85.185345 
   13400    293.52076   -10494.342            0   -9620.2872   -14297.715    790.14728    9.2449099    9.2449099    9.2449099     65.99921 
   13500    285.42142   -10476.732            0   -9626.7962   -8526.2217    790.71512     9.247124     9.247124     9.247124    76.166359 
   13600    301.28969   -10533.241            0   -9636.0517   -16954.184     790.2807    9.2454302    9.2454302    9.2454302     72.73991 
   13700    299.29123   -10538.156            0    -9646.918   -25302.376    788.82034    9.2397318    9.2397318    9.2397318    82.057638 
   13800     297.4784   -10545.194            0   -9659.3537    6434.8959    786.70504    9.2314654    9.2314654    9.2314654    61.276686 
   13900    293.71504   -10548.046            0   -9673.4129   -2283.2908    784.71158    9.2236615    9.2236615    9.2236615    72.709772 
   14000    302.99615   -10589.726            0   -9687.4556    4840.3291    782.85724    9.2163903    9.2163903    9.2163903    49.043934 
Loop time of 14.5977 on 16 procs for 1000 steps with 1000 atoms

Performance: 5.919 ns/day, 4.055 hours/ns, 68.504 timesteps/s
94.8% CPU use with 16 MPI tasks x no OpenMP threads

MPI task timing breakdown:
Section |  min time  |  avg time  |  max time  |%varavg| %total
---------------------------------------------------------------
Pair    | 1.3231     | 1.5362     | 2.0821     |  14.1 | 10.52
Neigh   | 0.5836     | 0.65115    | 0.83948    |   7.3 |  4.46
Comm    | 0.49782    | 1.2322     | 1.5119     |  21.0 |  8.44
Output  | 7.5864     | 7.8119     | 11.143     |  30.8 | 53.51
Modify  | 0.025701   | 3.3578     | 3.5842     |  47.0 | 23.00
Other   |            | 0.00834    |            |       |  0.06

Nlocal:    62.5 ave 68 max 56 min
Histogram: 2 2 0 1 1 2 3 1 2 2
Nghost:    1855 ave 1870 max 1843 min
Histogram: 2 2 2 1 2 2 1 2 1 1
Neighs:    0 ave 0 max 0 min
Histogram: 16 0 0 0 0 0 0 0 0 0
FullNghs:  18852.2 ave 20656 max 16811 min
Histogram: 1 3 0 1 1 2 3 3 0 2

Total # of neighbors = 301636
Ave neighs/atom = 301.636
Neighbor list builds = 1000
Dangerous builds not checked
Setting up Verlet run ...
  Unit style    : real
  Current step  : 14000
  Time step     : 1
Per MPI rank memory allocation (min/avg/max) = 4.576 | 4.578 | 4.58 Mbytes
Step Temp E_pair E_mol TotEng Press Volume Lx Ly Lz S/CPU 
   14000    302.99615   -10589.726            0   -9687.4556    4840.3291    782.85724    9.2163903    9.2163903    9.2163903            0 
   14100     300.2266   -10592.611            0   -9698.5872    3489.1805    781.45352    9.2108784    9.2108784    9.2108784    56.506205 
   14200    295.87635   -10588.169            0   -9707.0995    7403.4211    780.38139    9.2066642    9.2066642    9.2066642    72.453663 
   14300    298.83385   -10602.184            0   -9712.3078    12001.929     780.0515    9.2053667    9.2053667    9.2053667    57.165164 
   14400    286.40749   -10567.277            0    -9714.404    13987.976    780.21333    9.2060032    9.2060032    9.2060032    62.790391 
   14500    303.21441   -10619.031            0   -9716.1108    12323.335    780.86567    9.2085682    9.2085682    9.2085682    54.934947 
   14600    285.67295   -10564.953            0   -9714.2677   -5735.3896    781.47867    9.2109773    9.2109773    9.2109773    58.981539 
   14700    286.74209     -10566.6            0   -9712.7308   -5425.7924    781.38449    9.2106072    9.2106072    9.2106072    67.323984 
   14800    297.61616   -10595.385            0   -9709.1346    7126.5135    780.88679    9.2086512    9.2086512    9.2086512    56.577091 
   14900    289.22104    -10566.47            0   -9705.2196   -9702.0096    779.85271    9.2045846    9.2045846    9.2045846     60.46193 
   15000    295.10212   -10578.994            0   -9700.2299    9126.9054    778.78143    9.2003679    9.2003679    9.2003679    60.879037 
Loop time of 16.557 on 16 procs for 1000 steps with 1000 atoms

Performance: 5.218 ns/day, 4.599 hours/ns, 60.397 timesteps/s
94.8% CPU use with 16 MPI tasks x no OpenMP threads

MPI task timing breakdown:
Section |  min time  |  avg time  |  max time  |%varavg| %total
---------------------------------------------------------------
Pair    | 1.2552     | 1.5461     | 2.2621     |  17.8 |  9.34
Neigh   | 0.55989    | 0.65181    | 0.87092    |   8.7 |  3.94
Comm    | 0.36384    | 1.299      | 1.6835     |  25.5 |  7.85
Output  | 8.4968     | 8.7831     | 13.025     |  37.0 | 53.05
Modify  | 0.025754   | 4.2686     | 4.556      |  53.0 | 25.78
Other   |            | 0.00838    |            |       |  0.05

Nlocal:    62.5 ave 68 max 59 min
Histogram: 2 2 3 1 3 1 2 1 0 1
Nghost:    1866.69 ave 1877 max 1848 min
Histogram: 1 0 0 2 0 3 1 7 1 1
Neighs:    0 ave 0 max 0 min
Histogram: 16 0 0 0 0 0 0 0 0 0
FullNghs:  18964 ave 20451 max 17759 min
Histogram: 1 3 2 2 2 1 2 1 1 1

Total # of neighbors = 303424
Ave neighs/atom = 303.424
Neighbor list builds = 1000
Dangerous builds not checked
Setting up Verlet run ...
  Unit style    : real
  Current step  : 15000
  Time step     : 1
Per MPI rank memory allocation (min/avg/max) = 4.576 | 4.578 | 4.58 Mbytes
Step Temp E_pair E_mol TotEng Press Volume Lx Ly Lz S/CPU 
   15000    295.10212   -10578.994            0   -9700.2299    9126.9054    778.78143    9.2003679    9.2003679    9.2003679            0 
   15100     293.6875   -10568.054            0   -9693.5026    8688.3021    778.11431    9.1977401    9.1977401    9.1977401    51.943196 
   15200    293.97953   -10561.816            0   -9686.3956    7225.3458    777.78294    9.1964343    9.1964343    9.1964343     62.02506 
   15300    303.96456   -10585.961            0   -9680.8062    6444.0381    777.79593    9.1964855    9.1964855    9.1964855    57.231664 
   15400    301.32645   -10572.245            0   -9674.9466   -1688.9635    777.87556    9.1967993    9.1967993    9.1967993    52.648199 
   15500    300.33984   -10564.635            0   -9670.2739    1679.8777    777.92188    9.1969819    9.1969819    9.1969819    50.304326 
   15600    310.63009   -10592.401            0   -9667.3978    5350.9909    778.17093    9.1979632    9.1979632    9.1979632    53.238992 
   15700    309.53827   -10584.445            0   -9662.6934    5788.9211    779.09387    9.2015981    9.2015981    9.2015981     62.61677 
   15800    292.35318   -10528.394            0   -9657.8165    20573.037    780.54238    9.2072972    9.2072972    9.2072972    66.085308 
   15900    297.49722   -10540.184            0   -9654.2877   -4805.2157    782.54635    9.2151701    9.2151701    9.2151701     55.65921 
   16000    299.05711   -10541.417            0   -9650.8759   -2911.7203    784.72089    9.2236979    9.2236979    9.2236979    58.457786 
Loop time of 17.6679 on 16 procs for 1000 steps with 1000 atoms

Performance: 4.890 ns/day, 4.908 hours/ns, 56.600 timesteps/s
94.7% CPU use with 16 MPI tasks x no OpenMP threads

MPI task timing breakdown:
Section |  min time  |  avg time  |  max time  |%varavg| %total
---------------------------------------------------------------
Pair    | 1.3446     | 1.5804     | 2.2107     |  20.6 |  8.95
Neigh   | 0.58787    | 0.66348    | 0.89061    |  10.8 |  3.76
Comm    | 0.42436    | 1.2841     | 1.5905     |  30.6 |  7.27
Output  | 9.3693     | 9.6685     | 14.105     |  36.8 | 54.72
Modify  | 0.026595   | 4.463      | 4.7626     |  54.2 | 25.26
Other   |            | 0.008464   |            |       |  0.05

Nlocal:    62.5 ave 70 max 56 min
Histogram: 1 3 1 1 1 5 0 2 1 1
Nghost:    1858.5 ave 1873 max 1841 min
Histogram: 2 0 2 0 1 3 1 5 1 1
Neighs:    0 ave 0 max 0 min
Histogram: 16 0 0 0 0 0 0 0 0 0
FullNghs:  18792.6 ave 21157 max 16697 min
Histogram: 1 3 0 2 2 4 1 1 1 1

Total # of neighbors = 300682
Ave neighs/atom = 300.682
Neighbor list builds = 1000
Dangerous builds not checked
Setting up Verlet run ...
  Unit style    : real
  Current step  : 16000
  Time step     : 1
Per MPI rank memory allocation (min/avg/max) = 4.576 | 4.578 | 4.58 Mbytes
Step Temp E_pair E_mol TotEng Press Volume Lx Ly Lz S/CPU 
   16000    299.05711   -10541.417            0   -9650.8759   -2911.7203    784.72089    9.2236979    9.2236979    9.2236979            0 
   16100    300.05721   -10540.235            0   -9646.7157   -11844.401    786.98835    9.2325734    9.2325734    9.2325734    74.244668 
   16200    307.25659    -10558.57            0    -9643.612   -12200.709    788.88568    9.2399869    9.2399869    9.2399869    49.130122 
   16300    302.34087   -10539.431            0   -9639.1115   -19423.124    789.92557    9.2440451    9.2440451    9.2440451    46.048697 
   16400    305.96024   -10545.289            0   -9634.1919    -16613.32    789.60675    9.2428013    9.2428013    9.2428013    54.916868 
   16500    319.51673   -10582.798            0   -9631.3316   -4928.2152    787.95138    9.2363378    9.2363378    9.2363378    85.366567 
   16600    316.50668   -10569.615            0   -9627.1118   -3016.5402    785.51701    9.2268161    9.2268161    9.2268161    89.894347 
   16700    315.28079   -10563.912            0   -9625.0592   -142.42562    783.05472    9.2171652    9.2171652    9.2171652    50.016385 
   16800    319.63903     -10577.5            0   -9625.6696    2523.3631    780.60413      9.20754      9.20754      9.20754    67.661191 
   16900    328.20662   -10611.551            0   -9634.2077    14379.186     778.2302    9.1981967    9.1981967    9.1981967    86.368969 
   17000    323.23652   -10610.161            0   -9647.6182    7918.0899    776.22674    9.1902967    9.1902967    9.1902967    56.963059 
Loop time of 16.0494 on 16 procs for 1000 steps with 1000 atoms

Performance: 5.383 ns/day, 4.458 hours/ns, 62.308 timesteps/s
94.8% CPU use with 16 MPI tasks x no OpenMP threads

MPI task timing breakdown:
Section |  min time  |  avg time  |  max time  |%varavg| %total
---------------------------------------------------------------
Pair    | 1.3134     | 1.5424     | 2.164      |  17.9 |  9.61
Neigh   | 0.57788    | 0.65853    | 0.86883    |   9.6 |  4.10
Comm    | 0.4129     | 1.2454     | 1.5563     |  27.0 |  7.76
Output  | 8.8982     | 9.1308     | 12.568     |  29.4 | 56.89
Modify  | 0.02601    | 3.4638     | 3.6967     |  47.7 | 21.58
Other   |            | 0.008435   |            |       |  0.05

Nlocal:    62.5 ave 71 max 59 min
Histogram: 4 3 2 2 3 0 1 0 0 1
Nghost:    1868.5 ave 1891 max 1840 min
Histogram: 2 0 2 1 3 0 2 2 1 3
Neighs:    0 ave 0 max 0 min
Histogram: 16 0 0 0 0 0 0 0 0 0
FullNghs:  18995.9 ave 21803 max 17651 min
Histogram: 3 1 5 2 3 0 1 0 0 1

Total # of neighbors = 303934
Ave neighs/atom = 303.934
Neighbor list builds = 1000
Dangerous builds not checked
Setting up Verlet run ...
  Unit style    : real
  Current step  : 17000
  Time step     : 1
Per MPI rank memory allocation (min/avg/max) = 4.576 | 4.578 | 4.58 Mbytes
Step Temp E_pair E_mol TotEng Press Volume Lx Ly Lz S/CPU 
   17000    323.23652   -10610.161            0   -9647.6182    7918.0899    776.22674    9.1902967    9.1902967    9.1902967            0 
   17100    319.25674   -10614.304            0   -9663.6117   -4274.1411    774.79453    9.1846409    9.1846409    9.1846409    76.863433 
   17200    323.56167   -10645.429            0   -9681.9178   -8394.3166    773.75926    9.1805483    9.1805483    9.1805483     88.15106 
   17300    317.30932   -10641.391            0   -9696.4978    3495.7828    772.73776    9.1765065    9.1765065    9.1765065    78.094844 
   17400    313.50596   -10643.739            0   -9710.1715    8023.3379    772.17788    9.1742898    9.1742898    9.1742898    49.913744 
   17500    313.61498   -10655.532            0   -9721.6397   -2937.6529    772.09625    9.1739665    9.1739665    9.1739665    79.035248 
   17600    327.94487   -10712.168            0   -9735.6041    3216.3239    772.32684    9.1748797    9.1748797    9.1748797    88.338726 
   17700    320.75123   -10703.206            0    -9748.064    976.23637    773.02909    9.1776596    9.1776596    9.1776596    60.746132 
   17800    318.10754   -10710.756            0    -9763.486    10933.378    774.04581    9.1816814    9.1816814    9.1816814    79.191062 
   17900    315.95317   -10719.628            0   -9778.7731   -13267.739    775.01917    9.1855285    9.1855285    9.1855285    66.569257 
   18000    326.03075    -10767.67            0   -9796.8063   -10243.357     775.6187    9.1878964    9.1878964    9.1878964    67.548938 
Loop time of 14.0082 on 16 procs for 1000 steps with 1000 atoms

Performance: 6.168 ns/day, 3.891 hours/ns, 71.387 timesteps/s
94.9% CPU use with 16 MPI tasks x no OpenMP threads

MPI task timing breakdown:
Section |  min time  |  avg time  |  max time  |%varavg| %total
---------------------------------------------------------------
Pair    | 1.2966     | 1.5708     | 2.1947     |  18.7 | 11.21
Neigh   | 0.57147    | 0.6603     | 0.84752    |   9.4 |  4.71
Comm    | 0.45415    | 1.2659     | 1.6302     |  27.6 |  9.04
Output  | 6.6239     | 6.868      | 10.476     |  35.5 | 49.03
Modify  | 0.026134   | 3.6348     | 3.8795     |  48.9 | 25.95
Other   |            | 0.008451   |            |       |  0.06

Nlocal:    62.5 ave 68 max 55 min
Histogram: 1 1 1 2 0 1 6 1 1 2
Nghost:    1869 ave 1911 max 1833 min
Histogram: 1 3 1 2 3 2 0 1 1 2
Neighs:    0 ave 0 max 0 min
Histogram: 16 0 0 0 0 0 0 0 0 0
FullNghs:  18988.6 ave 21102 max 16416 min
Histogram: 1 1 1 1 2 2 4 2 0 2

Total # of neighbors = 303818
Ave neighs/atom = 303.818
Neighbor list builds = 1000
Dangerous builds not checked
Setting up Verlet run ...
  Unit style    : real
  Current step  : 18000
  Time step     : 1
Per MPI rank memory allocation (min/avg/max) = 4.576 | 4.578 | 4.58 Mbytes
Step Temp E_pair E_mol TotEng Press Volume Lx Ly Lz S/CPU 
   18000    326.03075    -10767.67            0   -9796.8063   -10243.357     775.6187    9.1878964    9.1878964    9.1878964            0 
   18100    322.38476   -10773.712            0   -9813.7053   -16034.103    775.57593    9.1877275    9.1877275    9.1877275    79.247224 
   18200    335.54959   -10831.142            0   -9831.9323    1413.6625    774.76184    9.1845118    9.1845118    9.1845118    92.360838 
   18300    326.42572   -10820.881            0   -9848.8413   -5243.6841    773.27375    9.1786277    9.1786277    9.1786277    72.126345 
   18400    322.78672   -10829.949            0   -9868.7457   -13516.099    770.81327    9.1688822    9.1688822    9.1688822    54.622681 
   18500    325.22864   -10857.521            0   -9889.0461   -14421.809    767.33497    9.1550699    9.1550699    9.1550699    74.906815 
   18600    339.13462   -10922.608            0   -9912.7228    -28011.13    762.68599    9.1365434    9.1365434    9.1365434    57.359255 
   18700     341.1884   -10950.655            0   -9934.6546    1231.6345    757.30065    9.1149882    9.1149882    9.1149882    55.961214 
   18800    327.64317   -10933.343            0    -9957.678    6380.8254    751.86324    9.0931206    9.0931206    9.0931206    58.955413 
   18900    355.08861   -11045.584            0   -9988.1906    15214.271    746.96819    9.0733439    9.0733439    9.0733439     55.11746 
   19000    356.63424   -11080.108            0   -10018.112    11505.933    742.99081    9.0572109    9.0572109    9.0572109    54.053415 
Loop time of 15.7877 on 16 procs for 1000 steps with 1000 atoms

Performance: 5.473 ns/day, 4.385 hours/ns, 63.341 timesteps/s
94.8% CPU use with 16 MPI tasks x no OpenMP threads

MPI task timing breakdown:
Section |  min time  |  avg time  |  max time  |%varavg| %total
---------------------------------------------------------------
Pair    | 1.3        | 1.5213     | 2.2044     |  17.9 |  9.64
Neigh   | 0.57919    | 0.65052    | 0.82855    |   7.8 |  4.12
Comm    | 0.35194    | 1.2132     | 1.5034     |  25.7 |  7.68
Output  | 8.5109     | 8.7554     | 12.368     |  31.5 | 55.46
Modify  | 0.025255   | 3.6389     | 3.8839     |  48.9 | 23.05
Other   |            | 0.008427   |            |       |  0.05

Nlocal:    62.5 ave 68 max 58 min
Histogram: 2 2 0 0 4 3 0 3 1 1
Nghost:    1928.5 ave 1960 max 1894 min
Histogram: 1 0 2 3 0 5 1 0 3 1
Neighs:    0 ave 0 max 0 min
Histogram: 16 0 0 0 0 0 0 0 0 0
FullNghs:  19770.4 ave 21605 max 18199 min
Histogram: 2 2 0 1 4 2 1 3 0 1

Total # of neighbors = 316326
Ave neighs/atom = 316.326
Neighbor list builds = 1000
Dangerous builds not checked
Setting up Verlet run ...
  Unit style    : real
  Current step  : 19000
  Time step     : 1
Per MPI rank memory allocation (min/avg/max) = 4.576 | 4.578 | 4.58 Mbytes
Step Temp E_pair E_mol TotEng Press Volume Lx Ly Lz S/CPU 
   19000    356.63424   -11080.108            0   -10018.112    11505.933    742.99081    9.0572109    9.0572109    9.0572109            0 
   19100    352.86466    -11101.35            0   -10050.579    33244.951    740.61896    9.0475629    9.0475629    9.0475629    62.619237 
   19200    341.23624   -11099.363            0    -10083.22    20527.441    740.28569    9.0462056    9.0462056    9.0462056    60.661131 
   19300    354.78057   -11174.371            0   -10117.895    5276.7326    741.49145    9.0511143    9.0511143    9.0511143    59.473983 
   19400    350.38666   -11194.652            0   -10151.261    7775.8935    743.44627    9.0590612    9.0590612    9.0590612    44.818498 
   19500     330.3914   -11166.784            0   -10182.935   -8675.6727     745.6759    9.0681084    9.0681084    9.0681084    57.033954 
   19600    345.22886   -11242.513            0    -10214.48   -8175.9162    747.60783     9.075933     9.075933     9.075933    67.024172 
   19700    338.85716   -11252.829            0   -10243.771   -18380.687    749.12625    9.0820733    9.0820733    9.0820733    56.667977 
   19800    329.98972   -11253.463            0    -10270.81   -27802.908    749.74973    9.0845923    9.0845923    9.0845923    65.869457 
   19900     328.6657    -11275.96            0    -10297.25   -27370.909    749.16325    9.0822229    9.0822229    9.0822229    57.055186 
   20000    327.06906   -11299.623            0   -10325.668   -22660.611    747.28834    9.0746399    9.0746399    9.0746399    54.542205 
   20100    321.72698   -11311.208            0    -10353.16    -10734.07    744.17968    9.0620392    9.0620392    9.0620392    63.452092 
   20200    330.51971   -11364.429            0   -10380.198   -2072.6333    740.65243    9.0476991    9.0476991    9.0476991    55.177286 
   20300     317.6663   -11351.414            0   -10405.458     3073.801    737.50357    9.0348589    9.0348589    9.0348589    70.704669 
   20400    321.56173   -11389.565            0   -10432.009    24191.283    735.19565    9.0254246    9.0254246    9.0254246    63.538346 
   20500    308.48179   -11374.447            0   -10455.841    30118.711    734.38515    9.0221068    9.0221068    9.0221068    47.879062 
   20600     305.9823   -11390.045            0   -10478.882    11347.083    734.86389    9.0240668    9.0240668    9.0240668    57.140934 
   20700    313.51215   -11436.444            0   -10502.859    9018.3474    736.03603    9.0288622    9.0288622    9.0288622    61.861346 
   20800    307.88351   -11438.749            0   -10521.924   -4974.9721    737.59707    9.0352407    9.0352407    9.0352407    50.164716 
   20900    305.80344   -11451.519            0   -10540.888   -16064.732    738.90887    9.0405939    9.0405939    9.0405939    61.022056 
   21000    301.59833   -11455.913            0   -10557.805   -10260.166    739.43718     9.042748     9.042748     9.042748    47.771709 
   21100    293.73061   -11447.007            0   -10572.327   -5673.3315    739.30594     9.042213     9.042213     9.042213    64.824758 
   21200    300.59538   -11481.536            0   -10586.414   -19679.306    738.53831    9.0390823    9.0390823    9.0390823    61.829339 
   21300    295.54278   -11477.069            0   -10596.993    2932.7877    737.02944    9.0329224    9.0329224    9.0329224    44.303256 
   21400    294.36195   -11483.316            0   -10606.756    5637.6408    735.21473    9.0255027    9.0255027    9.0255027    71.183244 
   21500    292.75521   -11486.989            0   -10615.214    10073.926     733.5021    9.0184891    9.0184891    9.0184891    57.835427 
   21600    295.10491    -11500.34            0   -10621.568    12558.909    732.44166     9.014141     9.014141     9.014141    58.106619 
   21700    294.10956   -11502.109            0   -10626.301    9086.0525     732.1612    9.0129903    9.0129903    9.0129903    64.973901 
   21800    302.48538   -11530.243            0   -10629.493    9404.8374    732.67719    9.0151071    9.0151071    9.0151071    51.265737 
   21900    287.39338   -11485.331            0   -10629.522    20280.181    733.95431    9.0203421    9.0203421    9.0203421    64.353221 
   22000    290.02247   -11492.474            0   -10628.837   -2762.9651    735.85691    9.0281297    9.0281297    9.0281297     54.95275 
   22100    294.73118   -11503.649            0    -10625.99   -13893.041     737.7253    9.0357643    9.0357643    9.0357643    56.665631 
   22200    299.63103   -11514.134            0   -10621.884   -9577.1907    739.07746    9.0412814    9.0412814    9.0412814    65.020381 
   22300    291.77682   -11484.799            0   -10615.937   -9155.3786    739.62639    9.0435192    9.0435192    9.0435192    55.371171 
   22400    279.96152   -11440.833            0   -10607.155   -9474.6046    739.28569    9.0421304    9.0421304    9.0421304    56.728509 
   22500    298.81336   -11490.222            0   -10600.407   -772.41122    738.00348    9.0368999    9.0368999    9.0368999    63.638826 
   22600    307.06329   -11505.615            0   -10591.233   -5280.5908    736.18282    9.0294624    9.0294624    9.0294624    53.193104 
   22700    299.65087   -11473.146            0   -10580.837    12165.017    734.43261    9.0223011    9.0223011    9.0223011    55.087874 
   22800    303.93474    -11475.59            0   -10570.525     13968.48    733.36647    9.0179332    9.0179332    9.0179332     53.16094 
   22900    304.93375    -11469.64            0   -10561.599    14578.038    733.28365    9.0175938    9.0175938    9.0175938    80.689906 
   23000    292.88251   -11424.564            0    -10552.41    6712.9353    734.14846    9.0211374    9.0211374    9.0211374    83.776293 
   23100    300.73112   -11442.955            0   -10547.429    2021.7059    735.59522    9.0270594    9.0270594    9.0270594    54.960895 
   23200    305.61863   -11452.724            0   -10542.644    1422.8886    737.19829    9.0336122    9.0336122    9.0336122    63.193849 
   23300    306.37965   -11451.893            0   -10539.547   -12473.543    738.51783    9.0389988    9.0389988    9.0389988    48.830602 
   23400    308.97137   -11456.022            0   -10535.958   -5563.6499    739.00217    9.0409744    9.0409744    9.0409744    54.436401 
   23500    296.23894   -11415.786            0   -10533.637    1831.8621    738.89355    9.0405314    9.0405314    9.0405314    61.343119 
   23600    298.33853   -11421.835            0   -10533.434     4195.328    738.39656     9.038504     9.038504     9.038504    50.822889 
   23700    301.97987   -11433.502            0   -10534.257    5946.1318    737.74696    9.0358527    9.0358527    9.0358527    65.270634 
   23800    298.39636   -11423.798            0   -10535.225      7177.63    737.15682    9.0334428    9.0334428    9.0334428    54.509472 
   23900    296.26005   -11419.348            0   -10537.136    12598.287     736.7166    9.0316441    9.0316441    9.0316441    51.340718 
   24000    301.61833   -11439.841            0   -10541.673    2149.7099    736.45733    9.0305846    9.0305846    9.0305846    61.685371 
   24100    304.45484   -11452.631            0   -10546.016     10936.54    736.27556    9.0298415    9.0298415    9.0298415    51.808012 
   24200    308.60663   -11470.384            0   -10551.407    7177.8089    736.26277    9.0297892    9.0297892    9.0297892    74.258788 
   24300    306.66871   -11470.447            0    -10557.24   -8629.2878     736.4954    9.0307402    9.0307402    9.0307402    61.891275 
   24400    293.71657   -11435.791            0   -10561.153   -2535.7312    736.53563    9.0309046    9.0309046    9.0309046    52.372733 
   24500    294.59981   -11444.203            0   -10566.935   -12378.693    736.34114    9.0301096    9.0301096    9.0301096    66.501048 
   24600    299.91127   -11466.739            0   -10573.654   -6066.3386    736.00215    9.0287237    9.0287237    9.0287237    62.114324 
   24700    304.97283    -11485.73            0   -10577.573   -3517.6513    735.57087    9.0269598    9.0269598    9.0269598    54.248932 
   24800    299.38314   -11472.926            0   -10581.414    1448.4609    735.21155    9.0254897    9.0254897    9.0254897    66.746873 
   24900    299.88598   -11477.054            0   -10584.045    4151.5666    735.04134    9.0247931    9.0247931    9.0247931     60.15268 
   25000    299.68221   -11479.895            0   -10587.492   -9890.9943     734.9117    9.0242625    9.0242625    9.0242625    68.797709 
   25100    302.19335   -11490.563            0   -10590.683    9074.0815    734.62492    9.0230885    9.0230885    9.0230885     61.32018 
   25200    291.20099   -11459.993            0   -10592.846    3201.3293    734.28472    9.0216955    9.0216955    9.0216955    53.268717 
   25300    301.66083   -11494.397            0   -10596.102     -5568.21    734.03795    9.0206847    9.0206847    9.0206847    82.646788 
   25400    304.96757   -11508.786            0   -10600.645    2069.9848    734.24988    9.0215528    9.0215528    9.0215528    84.787684 
   25500    310.47616   -11528.852            0   -10604.307    9735.1784    734.99873    9.0246187    9.0246187    9.0246187     66.76577 
   25600    296.11462   -11487.556            0   -10605.778   -9206.8967    735.93318    9.0284416    9.0284416    9.0284416    61.494728 
   25700     301.8456   -11508.171            0   -10609.326   -10662.392    736.50981    9.0307991    9.0307991    9.0307991    111.02513 
   25800     295.6028   -11491.848            0   -10611.594   -18.098432    736.71865    9.0316525    9.0316525    9.0316525    83.049506 
   25900    281.24034   -11448.196            0    -10610.71   -7457.7229     736.7412    9.0317447    9.0317447    9.0317447    75.926382 
   26000    300.01086   -11505.129            0   -10611.748   -7029.3712    736.43001    9.0304729    9.0304729    9.0304729    79.563572 
   26100    303.03039   -11512.651            0   -10610.278   -2402.5609    735.71662     9.027556     9.027556     9.027556    66.716353 
   26200    293.98554   -11481.457            0   -10606.019     5203.776    734.83255    9.0239385    9.0239385    9.0239385    74.170691 
   26300    304.02397   -11506.362            0   -10601.031    17697.434    734.34663     9.021949     9.021949     9.021949     80.81851 
   26400    292.69679   -11467.046            0   -10595.445    5470.4308     734.4695    9.0224522    9.0224522    9.0224522    86.869777 
   26500    295.30128   -11468.839            0   -10589.482    2335.1991    735.00574    9.0246474    9.0246474    9.0246474    63.882794 
   26600    301.89259   -11480.905            0   -10581.921    7380.1484     735.9311    9.0284331    9.0284331    9.0284331    82.445557 
   26700    301.93573   -11471.685            0   -10572.571   -634.30891    737.14432    9.0333917    9.0333917    9.0333917    88.466902 
   26800    292.81802   -11434.465            0   -10562.503    -10117.68    738.19706    9.0376899    9.0376899    9.0376899    71.013796 
   26900    309.11182   -11475.477            0   -10554.995   -8427.9143    738.87372    9.0404505    9.0404505    9.0404505    77.328518 
   27000    301.30656   -11443.526            0   -10546.287    -7289.094    738.84207    9.0403214    9.0403214    9.0403214    83.447356 
   27100    303.27754   -11441.269            0    -10538.16   -10788.175    738.02718    9.0369966    9.0369966    9.0369966    52.494242 
   27200    308.33307   -11451.567            0   -10533.404   -290.82396    736.62908    9.0312865    9.0312865    9.0312865    79.487841 
   27300     309.0667   -11450.638            0    -10530.29    6092.1018    735.13566    9.0251791    9.0251791    9.0251791    87.657766 
   27400    303.48123   -11432.255            0    -10528.54    5231.7553    734.01877    9.0206062    9.0206062    9.0206062    63.015056 
   27500    303.41331   -11431.429            0   -10527.916    18494.006    733.76985    9.0195863    9.0195863    9.0195863    61.671299 
   27600    305.12295   -11439.521            0   -10530.917    15593.118    734.51976     9.022658     9.022658     9.022658     66.25335 
   27700     305.6822   -11445.183            0   -10534.913    6297.4729    736.18483    9.0294706    9.0294706    9.0294706    51.856212 
   27800    306.44266   -11453.198            0   -10540.664   -2668.0974      738.378    9.0384283    9.0384283    9.0384283    61.432335 
   27900    312.28687   -11478.673            0   -10548.736   -16250.715    740.46321    9.0469286    9.0469286    9.0469286    59.005351 
   28000    306.87832   -11473.558            0   -10559.726   -25462.932    741.74169    9.0521324    9.0521324    9.0521324    54.985094 
   28100    288.24257   -11429.459            0   -10571.121   -21218.087    741.65374    9.0517746    9.0517746    9.0517746    62.030964 
   28200    296.33351   -11470.295            0   -10587.864   -13964.282    740.03794    9.0451963    9.0451963    9.0451963    59.948435 
   28300    291.15708    -11469.49            0   -10602.474   -2329.7786    737.21954    9.0336989    9.0336989    9.0336989    74.209544 
   28400    297.48967   -11500.124            0   -10614.251      3604.61    733.85189    9.0199225    9.0199225    9.0199225    63.386473 
   28500      296.621   -11504.144            0   -10620.857    23601.616    730.65854    9.0068201    9.0068201    9.0068201     53.82285 
   28600    290.72049   -11488.297            0   -10622.581     28871.89    728.78584    8.9991186    8.9991186    8.9991186    61.979589 
   28700    285.96758   -11475.233            0    -10623.67    26654.915    728.73539    8.9989109    8.9989109    8.9989109    58.145244 
   28800    296.71699    -11508.35            0   -10624.777    30969.413    730.56327    9.0064286    9.0064286    9.0064286    62.829033 
   28900     296.2497    -11506.93            0   -10624.749    9401.7835    733.83485    9.0198527    9.0198527    9.0198527    59.236738 
   29000    297.09607   -11507.662            0   -10622.961   -10234.014    737.57387     9.035146     9.035146     9.035146    47.634905 
   29100    289.77886   -11481.346            0   -10618.434   -20965.179    740.92754    9.0488192    9.0488192    9.0488192    70.241026 
   29200    292.10939    -11483.29            0   -10613.438    -25878.18    742.99389    9.0572234    9.0572234    9.0572234    70.843752 
   29300    295.42054   -11486.584            0   -10606.872   -24627.695    743.13724    9.0578059    9.0578059    9.0578059    49.803081 
   29400    297.08673   -11484.869            0   -10600.195   -26247.635     741.3417     9.050505     9.050505     9.050505    67.857556 
   29500    296.76438   -11477.113            0   -10593.399    1530.6742    738.07396    9.0371875    9.0371875    9.0371875    52.500184 
   29600    291.01252   -11450.027            0   -10583.442    9432.5521    734.28065    9.0216788    9.0216788    9.0216788    62.397537 
   29700    298.12966   -11462.219            0    -10574.44    38420.499    731.32649    9.0095638    9.0095638    9.0095638    65.693159 
   29800    305.48907    -11475.96            0   -10566.266    27609.656    730.16206    9.0047796    9.0047796    9.0047796    55.974677 
   29900    303.13276   -11463.854            0   -10561.176    19854.912    731.12532    9.0087377    9.0087377    9.0087377    50.157387 
   30000    304.58311   -11464.891            0   -10557.895    16558.885     733.8728    9.0200082    9.0200082    9.0200082     52.57165 
   30100    315.05781   -11494.111            0   -10555.923   -9153.4354    737.47379    9.0347373    9.0347373    9.0347373    64.920258 
   30200    300.02663   -11445.619            0   -10552.191   -7861.7473    740.79225    9.0482684    9.0482684    9.0482684    60.644252 
   30300    309.28768   -11471.765            0    -10550.76   -35203.536    742.96428    9.0571031    9.0571031    9.0571031    55.664368 
   30400    300.40823   -11444.739            0   -10550.175   -34021.461    743.47486    9.0591774    9.0591774    9.0591774    62.752979 
   30500    296.52924   -11432.746            0   -10549.732   -18296.022      742.338    9.0545575    9.0545575    9.0545575    60.761874 
   30600    301.29928   -11448.541            0   -10551.323   -9296.1515    740.07083    9.0453303    9.0453303    9.0453303    58.794063 
   30700    303.90485    -11459.51            0   -10554.533   -6932.6513    737.02097    9.0328878    9.0328878    9.0328878    75.948719 
   30800    301.64271   -11456.686            0   -10558.446    9732.3633    733.84553    9.0198964    9.0198964    9.0198964    58.748374 
   30900    307.29278    -11480.18            0   -10565.114    26355.419    731.41959    9.0099462    9.0099462    9.0099462    62.252584 
   31000    312.01319   -11506.971            0   -10577.849    26020.701    730.45146    9.0059691    9.0059691    9.0059691    68.297736 
   31100    304.84837   -11502.913            0   -10595.127    22817.227     731.1662    9.0089056    9.0089056    9.0089056    46.905139 
   31200    297.25568   -11500.139            0   -10614.962    10312.415    733.18937    9.0172073    9.0172073    9.0172073    71.789253 
   31300    288.99444   -11489.441            0   -10628.865   -5062.4986    735.96911    9.0285885    9.0285885    9.0285885    67.887537 
   31400    290.13121    -11502.45            0   -10638.489   -5201.1936    738.69012    9.0397016    9.0397016    9.0397016    57.755415 
   31500    280.88113   -11477.845            0   -10641.429   -20675.441    740.70163    9.0478995    9.0478995    9.0478995    69.883114 
   31600     290.0688   -11505.141            0   -10641.366   -18440.371    741.18676    9.0498744    9.0498744    9.0498744    60.819188 
   31700    294.62162   -11516.862            0   -10639.529   -21324.469    740.23611    9.0460036    9.0460036    9.0460036    67.385363 
   31800    293.57907   -11510.886            0   -10636.658   -10100.101    738.00197    9.0368937    9.0368937    9.0368937    66.373072 
   31900    289.92325   -11494.833            0   -10631.491    17847.499     735.0071     9.024653     9.024653     9.024653    53.911239 
   32000    291.08375   -11491.977            0    -10625.18    6851.1617    732.40038    9.0139716    9.0139716    9.0139716     64.22206 
   32100    299.74011   -11510.845            0    -10618.27    16823.518    730.63508    9.0067237    9.0067237    9.0067237    65.223189 
   32200    301.78096   -11510.185            0   -10611.533    12150.806    730.02971    9.0042355    9.0042355    9.0042355    56.260003 
   32300    302.98258   -11507.471            0   -10605.241    19875.371    730.68337    9.0069221    9.0069221    9.0069221    68.757807 
   32400    294.21997    -11475.01            0   -10598.873    14004.067    732.77521    9.0155091    9.0155091    9.0155091    54.989274 
   32500    305.86008   -11505.901            0   -10595.102     208.9728    735.74591    9.0276758    9.0276758    9.0276758    62.574413 
   32600    305.36064   -11499.189            0   -10589.877   -1673.8826    738.74856      9.03994      9.03994      9.03994    75.632223 
   32700    291.71006   -11451.941            0   -10583.278   -19775.267    740.98928    9.0490706    9.0490706    9.0490706    51.521661 
   32800    307.24191   -11491.863            0   -10576.949   -29170.245    741.94729    9.0529687    9.0529687    9.0529687    51.920676 
   32900    296.92459   -11455.733            0   -10571.543   -21019.137    741.30203    9.0503435    9.0503435    9.0503435    63.345802 
   33000    289.39398   -11427.568            0   -10565.802   -10525.199    739.36673    9.0424608    9.0424608    9.0424608    59.624814 
   33100    293.93651   -11435.324            0   -10560.032   -6695.7788    736.69001    9.0315355    9.0315355    9.0315355    67.716426 
   33200    304.11348   -11458.876            0   -10553.278    12124.746    734.04848    9.0207278    9.0207278    9.0207278    49.181158 
   33300    309.94055   -11471.237            0   -10548.286    24434.677    732.27412    9.0134536    9.0134536    9.0134536    61.015779 
   33400    303.51445   -11445.862            0   -10542.048    24669.114    731.73788    9.0112529    9.0112529    9.0112529    49.092872 
   33500    305.34666    -11447.05            0    -10537.78    18089.721    732.61829    9.0148655    9.0148655    9.0148655    63.237853 
   33600    306.25138   -11445.721            0   -10533.757     10430.86    734.66629    9.0232579    9.0232579    9.0232579    63.821566 
   33700    320.65495   -11485.175            0    -10530.32    81.674682    737.27219     9.033914     9.033914     9.033914    51.060079 
   33800    316.64485   -11468.203            0   -10525.289   -8774.6849    739.86575    9.0444947    9.0444947    9.0444947    65.030242 
   33900    310.15247   -11442.638            0   -10519.057   -16544.499    741.87525    9.0526757    9.0526757    9.0526757    63.973188 
   34000    303.26171    -11418.06            0   -10514.999   -27017.151     742.6341    9.0557612    9.0557612    9.0557612    56.832299 
   34100    307.75863    -11429.26            0   -10512.808   -12513.712    742.23605     9.054143     9.054143     9.054143    78.523875 
   34200    310.80018   -11439.706            0   -10514.196   -8770.9826    740.80985    9.0483401    9.0483401    9.0483401    58.410613 
   34300    297.25703   -11401.405            0   -10516.225   -4809.9811    738.71701    9.0398113    9.0398113    9.0398113    71.363868 
   34400    309.70003   -11444.537            0   -10522.303    11158.997    736.39462    9.0303282    9.0303282    9.0303282    58.375069 
   34500    310.85065   -11455.982            0   -10530.322    4680.1117    734.51543    9.0226402    9.0226402    9.0226402    55.382262 
   34600     308.4073   -11457.604            0    -10539.22    27623.029    733.47445    9.0183758    9.0183758    9.0183758    61.135968 
   34700    306.94756   -11465.919            0   -10551.882    16250.184    733.62255    9.0189828    9.0189828    9.0189828    61.322716 
   34800    304.72864   -11470.814            0   -10563.384    10107.471    734.80219    9.0238142    9.0238142    9.0238142    55.775468 
   34900    306.64074   -11488.917            0   -10575.793    1146.2364    736.62957    9.0312885    9.0312885    9.0312885    65.933562 
   35000    294.28383   -11460.739            0   -10584.412   -3808.4513    738.60247    9.0393441    9.0393441    9.0393441     50.75291 
   35100    295.62751   -11473.362            0   -10593.034   -8333.9389    740.25313    9.0460729    9.0460729    9.0460729    64.948624 
   35200    292.15196    -11470.36            0   -10600.381   -15866.081    741.13492    9.0496634    9.0496634    9.0496634    55.161543 
   35300    289.05258    -11466.52            0    -10605.77   -25363.112    740.92229    9.0487978    9.0487978    9.0487978     69.02662 
   35400      297.587   -11497.701            0   -10611.537   -22909.627    739.45544    9.0428224    9.0428224    9.0428224     68.97166 
   35500    298.82399   -11505.958            0   -10616.111   -1416.5201    736.99764    9.0327925    9.0327925    9.0327925    61.351427 
   35600    283.99982   -11464.371            0   -10618.668    1760.1659    734.35139    9.0219685    9.0219685    9.0219685    63.843009 
   35700    285.59928   -11470.122            0   -10619.657    30988.498    732.15927    9.0129824    9.0129824    9.0129824    50.383352 
   35800     297.9458   -11509.376            0   -10622.145    22384.658    731.16413    9.0088971    9.0088971    9.0088971     47.84587 
   35900    290.19902   -11486.591            0   -10622.427    18328.131    731.69714    9.0110857    9.0110857    9.0110857    70.907521 
   36000    303.77315   -11526.934            0    -10622.35    11632.131    733.62919      9.01901      9.01901      9.01901    57.245534 
   36100    300.25557   -11513.876            0   -10619.766   -5967.6772     736.2597    9.0297767    9.0297767    9.0297767    57.875827 
   36200    302.48076   -11516.127            0   -10615.391   -18819.106    738.72467    9.0398426    9.0398426    9.0398426    61.837971 
   36300    296.61981   -11490.034            0   -10606.751   -17911.288    740.36128    9.0465134    9.0465134    9.0465134    48.630494 
   36400    298.41191   -11484.742            0   -10596.122   -25604.378    740.67635    9.0477965    9.0477965    9.0477965    65.940368 
[...]
  105700    301.53346   -11477.376            0    -10579.46   -14134.623    739.43418    9.0427358    9.0427358    9.0427358    71.987353 
  105800    313.44176   -11517.545            0   -10584.169   -9349.6036    737.87573    9.0363784    9.0363784    9.0363784    56.656272 
  105900    301.93676   -11486.821            0   -10587.705    3471.9584    735.78701    9.0278438    9.0278438    9.0278438    57.449506 
  106000    303.62842   -11498.839            0   -10594.685    9816.7581    733.78174    9.0196351    9.0196351    9.0196351    72.038112 
  106100     311.9727   -11532.295            0   -10603.294    14528.455    732.57831    9.0147015    9.0147015    9.0147015    54.231918 
  106200    297.71041   -11498.308            0   -10611.777    24481.312    732.50032    9.0143816    9.0143816    9.0143816    61.177474 
  106300    299.39482   -11512.721            0   -10621.174    2299.0602    733.49356    9.0184541    9.0184541    9.0184541    47.244509 
  106400    294.04231   -11506.226            0   -10630.618    10000.195    735.08351    9.0249657    9.0249657    9.0249657    59.135581 
  106500    294.19498   -11515.509            0   -10639.446   -337.22448    736.96447     9.032657     9.032657     9.032657    63.018158 
  106600    283.90712   -11490.803            0   -10645.376   -18511.889    738.60268     9.039345     9.039345     9.039345    50.293996 
  106700    296.26098   -11533.543            0   -10651.328   -13345.973    739.51329    9.0430583    9.0430583    9.0430583    67.755722 
  106800    284.41072   -11501.058            0   -10654.131    111.83495    739.44262    9.0427702    9.0427702    9.0427702    58.439975 
  106900    296.95703   -11538.504            0   -10654.216   -13292.606    738.44425    9.0386986    9.0386986    9.0386986    54.130048 
  107000    291.18713   -11519.844            0   -10652.739   -6756.9151    736.65921    9.0314096    9.0314096    9.0314096    58.001691 
  107100    293.35356   -11525.298            0   -10651.742    6808.3187    734.56837     9.022857     9.022857     9.022857    61.543287 
  107200    297.74497    -11533.98            0   -10647.346    10311.286    732.89916    9.0160174    9.0160174    9.0160174    63.919328 
  107300    303.55641   -11549.257            0   -10645.318    24254.283    732.13419    9.0128794    9.0128794    9.0128794     64.64198 
  107400    301.27476   -11539.154            0   -10642.009     13845.55    732.56809    9.0146596    9.0146596    9.0146596     82.74866 
  107500    289.11165   -11501.256            0   -10640.331    11897.364    734.17406    9.0212422    9.0212422    9.0212422     93.15382 
  107600    295.31237   -11516.796            0   -10637.406   -5409.5057    736.47712    9.0306654    9.0306654    9.0306654    75.178623 
  107700    287.18714   -11489.675            0   -10634.481   -10628.903    738.78942    9.0401067    9.0401067    9.0401067    79.737764 
  107800    287.33562   -11486.778            0   -10631.142   -18834.385    740.47655    9.0469829    9.0469829    9.0469829    87.287321 
  107900    295.81978   -11508.874            0   -10627.973   -27750.173    740.89651    9.0486929    9.0486929    9.0486929    80.407447 
  108000     295.7284   -11505.203            0   -10624.574   -18269.713    739.86519    9.0444924    9.0444924    9.0444924     79.68952 
  108100    298.33347   -11509.358            0   -10620.972   -931.64918    737.49994    9.0348441    9.0348441    9.0348441    92.328496 
  108200    296.23726   -11498.259            0   -10616.115     4161.086    734.77676    9.0237102    9.0237102    9.0237102    87.942701 
  108300    301.88993   -11509.732            0   -10610.755    21143.463     732.4918    9.0143467    9.0143467    9.0143467     61.26045 
  108400    295.68663   -11486.414            0   -10605.909    25638.774    731.37884    9.0097788    9.0097788    9.0097788    69.801398 
  108500    300.35857   -11496.173            0   -10601.757    21886.993    731.69233     9.011066     9.011066     9.011066    91.691805 
  108600    302.42277   -11498.441            0   -10597.877    9921.6263    733.28429    9.0175964    9.0175964    9.0175964    61.452668 
  108700    292.84455   -11466.391            0    -10594.35   -452.53933    735.73357    9.0276253    9.0276253    9.0276253    92.269364 
  108800    310.37282   -11516.134            0   -10591.897    -11011.08    738.40227    9.0385273    9.0385273    9.0385273    82.037463 
  108900    294.82981   -11464.709            0   -10586.756   -23402.255    740.51547    9.0471414    9.0471414    9.0471414    63.793682 
  109000    307.03346   -11499.364            0   -10585.071   -26831.186    741.42904    9.0508603    9.0508603    9.0508603    93.456551 
  109100    304.45101   -11486.926            0   -10580.323   -22567.745     741.1001    9.0495217    9.0495217    9.0495217    101.40552 
  109200    303.79259   -11480.203            0   -10575.561   -13541.027    739.46232    9.0428505    9.0428505    9.0428505    101.29881 
  109300     299.4269   -11460.829            0   -10569.187    8750.0014    736.99587    9.0327852    9.0327852    9.0327852    68.381244 
  109400    309.15885   -11483.604            0   -10562.982    11584.563    734.49006    9.0225364    9.0225364    9.0225364    74.575689 
  109500    309.06364    -11475.23            0   -10554.891    17312.082     732.6485    9.0149894    9.0149894    9.0149894    59.612964 
  109600    313.14558   -11480.495            0   -10548.001    23186.232    732.16088     9.012989     9.012989     9.012989    77.259278 
  109700    301.75326   -11441.293            0   -10542.723    22091.566    733.31783    9.0177339    9.0177339    9.0177339    82.943966 
  109800     298.6454   -11429.803            0   -10540.488    8547.8997    735.75416    9.0277095    9.0277095    9.0277095    54.368059 
  109900    307.08585    -11455.51            0   -10541.061    6924.4572    738.70179    9.0397492    9.0397492    9.0397492    63.701934 
  110000    308.93278   -11462.858            0   -10542.909   -10754.953    741.52723    9.0512599    9.0512599    9.0512599    67.590547 
  110100    306.16101   -11457.381            0   -10545.686   -31688.282    743.34188    9.0586372    9.0586372    9.0586372    54.040273 
  110200    307.98227   -11468.922            0   -10551.803   -32813.193    743.43789    9.0590272    9.0590272    9.0590272     64.07957 
  110300     310.3952   -11484.154            0    -10559.85   -19559.687    741.69816    9.0519553    9.0519553    9.0519553    53.869559 
  110400    297.01777   -11455.405            0   -10570.937   -5821.4337    738.60636      9.03936      9.03936      9.03936    67.774561 
  110500    295.70982   -11464.248            0   -10583.675    7498.4662    735.00269    9.0246349    9.0246349    9.0246349    49.730275 
  110600    296.86468   -11479.745            0   -10595.732    20755.584    731.96515    9.0121858    9.0121858    9.0121858    62.815697 
  110700    302.32488   -11507.251            0   -10606.979    30756.254     730.2134    9.0049906    9.0049906    9.0049906    54.354241 
  110800     311.2749   -11545.217            0   -10618.293    24509.203    730.32274    9.0054401    9.0054401    9.0054401    61.259726 
  110900    306.88537   -11538.061            0   -10624.209     18675.14    732.19976    9.0131485    9.0131485    9.0131485    73.499468 
  111000    289.77444   -11493.592            0   -10630.693    6386.0713    735.12498    9.0251354    9.0251354    9.0251354    51.049655 
  111100    296.77971   -11519.816            0   -10636.056   -16476.607     738.1797    9.0376191    9.0376191    9.0376191     59.01007 
  111200    295.43827   -11517.409            0   -10637.644   -33173.775    740.39859    9.0466654    9.0466654    9.0466654    57.816623 
  111300    298.48776   -11528.921            0   -10640.075   -21779.775    741.15758    9.0497556    9.0497556    9.0497556    63.621906 
  111400    289.97755   -11502.438            0   -10638.934   -25007.594    740.57317    9.0473764    9.0473764    9.0473764    68.148048 
  111500     294.1706   -11514.942            0   -10638.952   -12216.192    738.66168    9.0395856    9.0395856    9.0395856     57.79998 
  111600    293.62724   -11512.671            0     -10638.3   -2142.7718    735.94059    9.0284719    9.0284719    9.0284719    66.645143 
  111700    284.63047   -11482.067            0   -10634.487    12967.149    733.20407    9.0172675    9.0172675    9.0172675    49.988469 
  111800    303.40283   -11536.963            0   -10633.482    11137.861    731.42099    9.0099519    9.0099519    9.0099519     61.38314 
  111900    299.06688   -11519.302            0   -10628.732    30150.047    730.91113    9.0078579    9.0078579    9.0078579    66.384275 
  112000    304.28851   -11531.311            0   -10625.191    5356.8389    731.82358    9.0116047    9.0116047    9.0116047    56.560101 
  112100    290.12673   -11481.114            0   -10617.166    8096.7196     733.8891     9.020075     9.020075     9.020075    59.867604 
  112200    297.96817   -11495.642            0   -10608.344    4059.1923     736.5329    9.0308934    9.0308934    9.0308934    48.078803 
  112300    305.08189    -11503.65            0   -10595.168   -21876.389    739.06995    9.0412508    9.0412508    9.0412508    56.270387 
  112400     307.2513   -11495.836            0   -10580.894   -17509.583    740.81005    9.0483409    9.0483409    9.0483409    82.253482 
  112500     306.6711   -11479.498            0   -10566.284   -12674.091    741.36322    9.0505925    9.0505925    9.0505925    73.432142 
  112600    292.97146   -11426.834            0   -10554.415   -25797.566    740.79249    9.0482694    9.0482694    9.0482694    91.486614 
  112700    309.07072    -11468.91            0    -10548.55   -8152.6361     739.0204    9.0410487    9.0410487    9.0410487    85.471204 
  112800    315.69358   -11485.032            0   -10544.951   -1004.0849     736.7735    9.0318767    9.0318767    9.0318767    66.490335 
  112900    309.29537   -11464.374            0   -10543.345     9663.265     734.8055    9.0238278    9.0238278    9.0238278    77.664069 
  113000     310.9036   -11469.604            0   -10543.786    11522.831    733.74504    9.0194847    9.0194847    9.0194847    83.301517 
  113100     310.4891   -11471.733            0   -10547.149    20299.637    733.70419    9.0193173    9.0193173    9.0193173    69.533938 
  113200    311.04871   -11477.499            0   -10551.249    13953.685    734.75822    9.0236343    9.0236343    9.0236343    84.036387 
  113300    312.28575   -11487.344            0    -10557.41   -2104.3087    736.58689    9.0311141    9.0311141    9.0311141    91.683318 
  113400     314.7572   -11500.611            0   -10563.318   -1609.9097     738.4922    9.0388942    9.0388942    9.0388942    63.610412 
  113500    308.78835   -11487.695            0   -10568.176   -5847.5636    740.05697    9.0452738    9.0452738    9.0452738    72.023606 
  113600    305.70749   -11484.644            0   -10574.299   -19354.239    740.84409    9.0484795    9.0484795    9.0484795    86.044941 
  113700    300.03991   -11474.711            0   -10581.243    -22523.81    740.39923     9.046668     9.046668     9.046668    77.340989 
  113800    299.91483    -11481.36            0   -10588.265   -14564.001    738.92398    9.0406555    9.0406555    9.0406555    81.434013 
  113900    294.61971   -11471.369            0   -10594.041    1754.2737     736.8073    9.0320148    9.0320148    9.0320148    86.138534 
  114000    308.06792   -11518.358            0   -10600.985    15948.061    734.63972    9.0231491    9.0231491    9.0231491    71.936101 
  114100     294.2411   -11482.663            0   -10606.463    15373.125    733.10377    9.0168564    9.0168564    9.0168564    69.361498 
  114200    292.74371   -11482.899            0   -10611.158     23355.78    732.63543    9.0149358    9.0149358    9.0149358    94.035357 
  114300    297.09214   -11499.976            0   -10615.287    4706.9461    733.16971    9.0171267    9.0171267    9.0171267    80.626742 
  114400    288.47955   -11477.043            0       -10618    7720.4512    734.43812    9.0223237    9.0223237    9.0223237    62.127209 
  114500    293.66739   -11494.813            0   -10620.321    3021.0078    736.02643    9.0288229    9.0288229    9.0288229    79.084929 
  114600    301.87428   -11520.468            0   -10621.538   -9243.0374    737.52346    9.0349401    9.0349401    9.0349401    55.201525 
  114700    300.02492   -11514.622            0   -10621.199   -7953.5038    738.48695    9.0388728    9.0388728    9.0388728    63.795092 
  114800    308.50113   -11539.732            0   -10621.068   -11991.321    738.68719    9.0396897    9.0396897    9.0396897    78.433137 
  114900    301.71667   -11518.116            0   -10619.655   -3632.9402    738.02347    9.0369815    9.0369815    9.0369815    56.977496 
  115000    302.11931   -11517.752            0   -10618.092   -8191.0942    736.87326    9.0322843    9.0322843    9.0322843    58.058912 
  115100    301.47633   -11512.257            0   -10614.512   -7698.6105     735.4249    9.0263626    9.0263626    9.0263626    67.042851 
  115200     301.7887   -11509.875            0     -10611.2    8360.6953    734.19745     9.021338     9.021338     9.021338    75.159472 
  115300    307.26674   -11523.708            0    -10608.72    16639.243    733.62801    9.0190052    9.0190052    9.0190052    72.291503 
  115400    296.09853     -11485.8            0   -10604.069    11932.966    733.94628    9.0203092    9.0203092    9.0203092    57.936414 
  115500    303.87767   -11506.853            0   -10601.957    2433.1539     734.9917      9.02459      9.02459      9.02459    66.045429 
  115600    303.85839   -11504.341            0   -10599.502    3028.9092    736.35752    9.0301766    9.0301766    9.0301766    91.463842 
  115700    294.20144   -11473.079            0   -10596.997   -7425.9457    737.73266    9.0357943    9.0357943    9.0357943    71.580346 
  115800      297.519   -11482.599            0   -10596.638   -17726.149     738.8306    9.0402746    9.0402746    9.0402746    75.915076 
  115900    302.64364    -11497.27            0   -10596.049   -16785.214    739.27728    9.0420961    9.0420961    9.0420961    92.578766 
  116000    294.96073   -11473.334            0   -10594.991   -5048.5152    739.08406    9.0413083    9.0413083    9.0413083    85.118294 
  116100    309.44393   -11517.599            0   -10596.128   -10185.433    738.18834    9.0376543    9.0376543    9.0376543    59.093292 
  116200    298.05768   -11483.532            0   -10595.967    4640.3692    736.73078    9.0317021    9.0317021    9.0317021    87.892593 
  116300    296.16107    -11476.51            0   -10594.593    9169.5348    735.16749    9.0253094    9.0253094    9.0253094    82.525022 
  116400    302.75134   -11497.703            0   -10596.161    8817.7014    734.11703    9.0210087    9.0210087    9.0210087    67.225532 
  116500    298.88441   -11485.111            0   -10595.084    15070.708    733.94925    9.0203214    9.0203214    9.0203214    75.408279 
  116600    300.48432   -11489.881            0    -10595.09    3835.9558    734.40775    9.0221993    9.0221993    9.0221993      87.2071 
  116700    305.32161   -11503.863            0   -10594.667    13089.135    735.31529    9.0259141    9.0259141    9.0259141     54.91203 
  116800    295.20306   -11472.517            0   -10593.453    2268.2656    736.55558    9.0309861    9.0309861    9.0309861    93.212173 
  116900    286.46234   -11446.356            0   -10593.321   -7297.8981    737.75963    9.0359044    9.0359044    9.0359044    91.388736 
  117000    296.49131   -11478.033            0   -10595.133    881.83503    738.60872    9.0393696    9.0393696    9.0393696    78.417254 
  117100    287.67255   -11451.565            0   -10594.925   -5126.2766    738.93807    9.0407129    9.0407129    9.0407129    79.450213 
  117200    302.60127    -11496.49            0   -10595.395   -10192.066    738.58907    9.0392894    9.0392894    9.0392894    69.975743 
  117300    314.62405   -11534.266            0   -10597.369   -14065.695    737.69886    9.0356563    9.0356563    9.0356563    58.767748 
  117400    301.61059   -11496.349            0   -10598.205     8317.336    736.45051    9.0305567    9.0305567    9.0305567    59.953651 
  117500    300.21129    -11492.84            0   -10598.862   -456.69621    735.35694    9.0260846    9.0260846    9.0260846    52.516464 
  117600     298.8944   -11488.517            0    -10598.46    11589.724    734.57603    9.0228884    9.0228884    9.0228884    86.461048 
  117700    305.74487   -11511.396            0    -10600.94    9343.8689    734.41426     9.022226     9.022226     9.022226    100.72808 
  117800     296.2973   -11484.594            0   -10602.272    7067.6472    734.81715    9.0238755    9.0238755    9.0238755    86.820161 
  117900    304.17679    -11511.97            0   -10606.184   -3305.9576    735.56132    9.0269207    9.0269207    9.0269207    76.581937 
  118000    299.56906   -11502.442            0   -10610.377   -5023.5058    736.21197    9.0295815    9.0295815    9.0295815    88.084964 
  118100    301.43838   -11513.506            0   -10615.874   -7146.8812    736.63911    9.0313275    9.0313275    9.0313275    69.949609 
  118200    290.86593   -11486.396            0   -10620.247    -1987.867    736.87411    9.0322878    9.0322878    9.0322878    79.230388 
  118300    290.88544   -11492.383            0   -10626.176   -7450.1277    736.99802     9.032794     9.032794     9.032794    99.678865 
  118400    290.28628   -11495.323            0     -10630.9   -3146.6052    736.64948    9.0313699    9.0313699    9.0313699     83.56305 
  118500    301.15352   -11532.998            0   -10636.214    3653.5169    735.96444    9.0285695    9.0285695    9.0285695    65.932536 
  118600    283.48662   -11481.173            0   -10636.999   -4641.2501    735.28323     9.025783     9.025783     9.025783    64.679303 
  118700    296.71376   -11522.425            0   -10638.862   -369.63156    734.64074    9.0231533    9.0231533    9.0231533    91.887023 
  118800    299.66209   -11529.782            0   -10637.439    2820.7663    734.26734    9.0216243    9.0216243    9.0216243    77.288158 
  118900    294.35415   -11510.362            0   -10633.825    1847.3098    734.17188    9.0212333    9.0212333    9.0212333    73.605099 
  119000    287.24635   -11480.934            0   -10625.563    8138.4327    734.47704    9.0224831    9.0224831    9.0224831    94.466949 
Loop time of 1561.9 on 16 procs for 100000 steps with 1000 atoms

Performance: 5.532 ns/day, 4.339 hours/ns, 64.025 timesteps/s
94.8% CPU use with 16 MPI tasks x no OpenMP threads

MPI task timing breakdown:
Section |  min time  |  avg time  |  max time  |%varavg| %total
---------------------------------------------------------------
Pair    | 137.92     | 153.72     | 206.65     | 123.5 |  9.84
Neigh   | 61.27      | 67.206     | 84.868     |  63.8 |  4.30
Comm    | 47.614     | 118.27     | 140.15     | 188.7 |  7.57
Output  | 825.72     | 850.64     | 1219.2     | 326.3 | 54.46
Modify  | 2.5937     | 371.2      | 396.15     | 494.0 | 23.77
Other   |            | 0.859      |            |       |  0.05

Nlocal:    62.5 ave 66 max 60 min
Histogram: 3 2 0 3 0 3 3 0 1 1
Nghost:    1935.38 ave 1964 max 1911 min
Histogram: 3 2 1 2 1 0 2 2 2 1
Neighs:    0 ave 0 max 0 min
Histogram: 16 0 0 0 0 0 0 0 0 0
FullNghs:  20039 ave 21102 max 18986 min
Histogram: 3 1 0 2 1 1 5 0 1 2

Total # of neighbors = 320624
Ave neighs/atom = 320.624
Neighbor list builds = 100000
Dangerous builds not checked
Total wall time: 0:31:30
