LAMMPS (16 Mar 2018)
Reading data file ...
  orthogonal box = (-4.72466 -4.72466 -4.72466) to (4.72466 4.72466 4.72466)
  2 by 2 by 4 MPI processor grid
  reading atoms ...
  1000 atoms
Reading potential file /home/fs01/ajm529/lammps-16Mar18/potentials/sw_potentials/AG/eps2.23.sw with DATE: 2008-01-29
Neighbor list info ...
  update every 1 steps, delay 0 steps, check no
  max neighbors/atom: 2000, page size: 100000
  master list distance cutoff = 3.836
  ghost atom cutoff = 3.836
  binsize = 1.918, bins = 5 5 5
  1 neighbor lists, perpetual/occasional/extra = 1 0 0
  (1) pair sw, perpetual
      attributes: full, newton on
      pair build: full/bin/atomonly
      stencil: full/bin/3d
      bin: standard
Setting up Verlet run ...
  Unit style    : real
  Current step  : 0
  Time step     : 1
Per MPI rank memory allocation (min/avg/max) = 3.518 | 3.519 | 3.52 Mbytes
Step Temp E_pair E_mol TotEng Press Volume Lx Ly Lz S/CPU 
       0          300   -10016.017            0   -9122.6683   -24646.928    843.72846    9.4493275    9.4493275    9.4493275            0 
     100    339.62468   -10141.538            0   -9130.1942    -37303.39    842.21267    9.4436654    9.4436654    9.4436654    59.409571 
     200    353.34081   -10200.094            0   -9147.9053   -37375.233    837.62304    9.4264798    9.4264798    9.4264798    42.604636 
     300    337.23159   -10177.681            0   -9173.4628   -29849.784     830.4131    9.3993552    9.3993552    9.3993552    37.725855 
     400     343.8541   -10225.229            0   -9201.2905   -16368.301    821.26801    9.3647237    9.3647237    9.3647237    53.163785 
     500     341.4857   -10238.314            0   -9221.4278   -5188.0387     811.5785    9.3277489    9.3277489    9.3277489    45.665294 
     600    338.16697   -10249.764            0   -9242.7609   -4307.3844    802.70608     9.293633     9.293633     9.293633    43.849768 
     700    338.52836   -10273.641            0   -9265.5613    5684.3248    795.20727    9.2646023    9.2646023    9.2646023    34.759878 
     800    331.25547   -10275.422            0   -9288.9996     12569.73    789.41061    9.2420359    9.2420359    9.2420359    53.382993 
     900    333.58817   -10305.599            0   -9312.2302    16032.635    785.59422    9.2271184    9.2271184    9.2271184    45.971481 
    1000    337.74096   -10343.789            0   -9338.0544    21881.053    783.43115    9.2186419    9.2186419    9.2186419    32.974921 
Loop time of 22.9905 on 16 procs for 1000 steps with 1000 atoms

Performance: 3.758 ns/day, 6.386 hours/ns, 43.496 timesteps/s
94.4% CPU use with 16 MPI tasks x no OpenMP threads

MPI task timing breakdown:
Section |  min time  |  avg time  |  max time  |%varavg| %total
---------------------------------------------------------------
Pair    | 1.4627     | 1.5412     | 1.6911     |   5.3 |  6.70
Neigh   | 0.62325    | 0.65017    | 0.69359    |   2.1 |  2.83
Comm    | 0.72582    | 0.91965    | 1.0247     |   8.4 |  4.00
Output  | 14.181     | 14.539     | 19.832     |  35.8 | 63.24
Modify  | 0.038041   | 5.3323     | 5.6919     |  59.2 | 23.19
Other   |            | 0.00852    |            |       |  0.04

Nlocal:    62.5 ave 67 max 60 min
Histogram: 2 3 4 0 4 1 0 0 1 1
Nghost:    1863.5 ave 1881 max 1848 min
Histogram: 2 1 0 4 2 0 5 1 0 1
Neighs:    0 ave 0 max 0 min
Histogram: 16 0 0 0 0 0 0 0 0 0
FullNghs:  18838.2 ave 20250 max 17978 min
Histogram: 2 3 3 1 4 0 1 0 1 1

Total # of neighbors = 301412
Ave neighs/atom = 301.412
Neighbor list builds = 1000
Dangerous builds not checked
Setting up Verlet run ...
  Unit style    : real
  Current step  : 1000
  Time step     : 1
Per MPI rank memory allocation (min/avg/max) = 3.768 | 4.477 | 4.579 Mbytes
Step Temp E_pair E_mol TotEng Press Volume Lx Ly Lz S/CPU 
    1000    337.74096   -10343.789            0   -9338.0544    21881.053    783.43115    9.2186419    9.2186419    9.2186419            0 
    1100    326.50092   -10334.367            0   -9362.1031      31022.3    782.70685    9.2158001    9.2158001    9.2158001    56.573421 
    1200    327.71256   -10363.536            0   -9387.6636    14712.509    783.17328    9.2176303    9.2176303    9.2176303    48.912422 
    1300     316.6053   -10353.582            0   -9410.7854   -934.47372    784.33811    9.2221979    9.2221979    9.2221979     48.20881 
    1400    314.27552   -10368.388            0   -9432.5297    13456.576     785.3842    9.2262961    9.2262961    9.2262961    39.945784 
    1500    313.71725   -10389.136            0   -9454.9396     7160.499    786.38298    9.2302055    9.2302055    9.2302055    46.420094 
    1600    312.60007   -10407.311            0   -9476.4411    11026.223    787.36365    9.2340407    9.2340407    9.2340407    38.466204 
    1700    310.37353   -10420.108            0   -9495.8684   -12293.434    788.60798    9.2389026    9.2389026    9.2389026    51.545035 
    1800    299.09997   -10404.188            0   -9513.5197   -1332.1207    789.82896    9.2436683    9.2436683    9.2436683    51.448308 
    1900    305.35765   -10439.734            0   -9530.4314    276.33795     790.9169    9.2479105    9.2479105    9.2479105      50.5647 
    2000    298.11741   -10433.816            0   -9546.0736    -13209.49    791.42635    9.2498957    9.2498957    9.2498957    56.593119 
Loop time of 20.7721 on 16 procs for 1000 steps with 1000 atoms

Performance: 4.159 ns/day, 5.770 hours/ns, 48.141 timesteps/s
94.5% CPU use with 16 MPI tasks x no OpenMP threads

MPI task timing breakdown:
Section |  min time  |  avg time  |  max time  |%varavg| %total
---------------------------------------------------------------
Pair    | 1.5137     | 1.6563     | 1.7876     |   5.0 |  7.97
Neigh   | 0.63849    | 0.66433    | 0.69965    |   2.1 |  3.20
Comm    | 0.79642    | 0.94847    | 1.1077     |   7.9 |  4.57
Output  | 11.787     | 12.145     | 17.455     |  39.3 | 58.47
Modify  | 0.03837    | 5.3491     | 5.7074     |  59.3 | 25.75
Other   |            | 0.008571   |            |       |  0.04

Nlocal:    62.5 ave 67 max 56 min
Histogram: 1 0 1 1 3 2 3 1 1 3
Nghost:    1855.12 ave 1870 max 1838 min
Histogram: 1 3 1 0 1 4 0 1 3 2
Neighs:    0 ave 0 max 0 min
Histogram: 16 0 0 0 0 0 0 0 0 0
FullNghs:  18643.6 ave 20036 max 16584 min
Histogram: 1 0 0 2 3 2 3 1 1 3

Total # of neighbors = 298298
Ave neighs/atom = 298.298
Neighbor list builds = 1000
Dangerous builds not checked
Setting up Verlet run ...
  Unit style    : real
  Current step  : 2000
  Time step     : 1
Per MPI rank memory allocation (min/avg/max) = 4.577 | 4.578 | 4.579 Mbytes
Step Temp E_pair E_mol TotEng Press Volume Lx Ly Lz S/CPU 
    2000    298.11741   -10433.816            0   -9546.0736    -13209.49    791.42635    9.2498957    9.2498957    9.2498957            0 
    2100    305.56767   -10470.823            0   -9560.8943   -18026.497    791.37812    9.2497078    9.2497078    9.2497078    46.012372 
    2200    301.84466   -10472.429            0   -9573.5874   -6920.0314    791.15095    9.2488227    9.2488227    9.2488227    53.220185 
    2300    302.10693    -10486.63            0   -9587.0076   -5029.9686    790.63303     9.246804     9.246804     9.246804    59.045595 
    2400    318.06552   -10547.596            0    -9600.451   -2882.1977    790.07814    9.2446402    9.2446402    9.2446402    47.184701 
    2500    303.09696   -10513.995            0   -9611.4241    3075.7649    789.56346    9.2426324    9.2426324    9.2426324    50.374693 
    2600    293.40725   -10494.916            0   -9621.1997   -8423.1041    788.86358    9.2399007    9.2399007    9.2399007    42.432961 
    2700    304.85433   -10538.914            0   -9631.1094    6389.1626    787.78947    9.2357051    9.2357051    9.2357051    49.045722 
    2800     295.0749   -10517.396            0   -9638.7131    3976.3956    786.51605    9.2307261    9.2307261    9.2307261    44.821475 
    2900    291.24097     -10512.1            0   -9644.8343    5860.6802    785.48515    9.2266913    9.2266913    9.2266913    60.619351 
    3000    290.62292   -10515.115            0   -9649.6894   -6048.9203    784.52673    9.2229371    9.2229371    9.2229371    50.760588 
Loop time of 20.0967 on 16 procs for 1000 steps with 1000 atoms

Performance: 4.299 ns/day, 5.582 hours/ns, 49.759 timesteps/s
94.5% CPU use with 16 MPI tasks x no OpenMP threads

MPI task timing breakdown:
Section |  min time  |  avg time  |  max time  |%varavg| %total
---------------------------------------------------------------
Pair    | 1.5747     | 1.6633     | 1.7646     |   4.8 |  8.28
Neigh   | 0.64743    | 0.67418    | 0.7087     |   2.2 |  3.35
Comm    | 0.78768    | 0.91948    | 1.0311     |   8.1 |  4.58
Output  | 11.087     | 11.447     | 16.796     |  40.8 | 56.96
Modify  | 0.034906   | 5.3841     | 5.7444     |  59.5 | 26.79
Other   |            | 0.008614   |            |       |  0.04

Nlocal:    62.5 ave 67 max 59 min
Histogram: 3 1 3 3 0 0 0 3 2 1
Nghost:    1852.12 ave 1874 max 1838 min
Histogram: 3 1 2 2 4 1 1 0 1 1
Neighs:    0 ave 0 max 0 min
Histogram: 16 0 0 0 0 0 0 0 0 0
FullNghs:  18811.2 ave 20156 max 17699 min
Histogram: 3 1 2 4 0 0 0 3 0 3

Total # of neighbors = 300980
Ave neighs/atom = 300.98
Neighbor list builds = 1000
Dangerous builds not checked
Setting up Verlet run ...
  Unit style    : real
  Current step  : 3000
  Time step     : 1
Per MPI rank memory allocation (min/avg/max) = 4.577 | 4.578 | 4.579 Mbytes
Step Temp E_pair E_mol TotEng Press Volume Lx Ly Lz S/CPU 
    3000    290.62292   -10515.115            0   -9649.6894   -6048.9203    784.52673    9.2229371    9.2229371    9.2229371            0 
    3100    295.57676    -10533.42            0   -9653.2429    574.66857    783.47621    9.2188186    9.2188186    9.2188186    47.048794 
    3200    287.08362   -10510.675            0    -9655.789    15536.749    782.54547    9.2151666    9.2151666    9.2151666    47.320504 
    3300    290.27053   -10520.992            0   -9656.6154    3090.0359    781.94195     9.212797     9.212797     9.212797    45.839253 
    3400    291.56069   -10524.594            0   -9656.3765    8988.7149    781.56944    9.2113339    9.2113339    9.2113339    50.919088 
    3500    306.72557   -10567.249            0   -9653.8722    6279.6441    781.59845    9.2114478    9.2114478    9.2114478    54.552392 
    3600    291.67715   -10518.603            0   -9650.0387    9755.2623    781.96719    9.2128962    9.2128962    9.2128962    46.220367 
    3700    287.31913   -10500.011            0   -9644.4236   -5830.2136    782.28725    9.2141529    9.2141529    9.2141529    56.003231 
    3800    294.30316   -10514.675            0   -9638.2907    3698.7891    782.37204    9.2144859    9.2144859    9.2144859    51.536732 
    3900    304.74692   -10539.209            0   -9631.7251   -4115.8073    782.22737    9.2139179    9.2139179    9.2139179    51.409444 
    4000    302.90258   -10526.125            0   -9624.1324    4466.8912     782.2282    9.2139211    9.2139211    9.2139211     47.13789 
Loop time of 20.1734 on 16 procs for 1000 steps with 1000 atoms

Performance: 4.283 ns/day, 5.604 hours/ns, 49.570 timesteps/s
94.5% CPU use with 16 MPI tasks x no OpenMP threads

MPI task timing breakdown:
Section |  min time  |  avg time  |  max time  |%varavg| %total
---------------------------------------------------------------
Pair    | 1.5791     | 1.6721     | 1.7734     |   4.0 |  8.29
Neigh   | 0.64445    | 0.6691     | 0.71029    |   2.2 |  3.32
Comm    | 0.7883     | 0.92264    | 1.0409     |   7.0 |  4.57
Output  | 11.213     | 11.57      | 16.861     |  40.2 | 57.35
Modify  | 0.039132   | 5.3305     | 5.6883     |  59.2 | 26.42
Other   |            | 0.008581   |            |       |  0.04

Nlocal:    62.5 ave 67 max 57 min
Histogram: 1 1 1 1 2 2 2 1 2 3
Nghost:    1858.69 ave 1882 max 1828 min
Histogram: 1 1 2 1 0 2 2 4 2 1
Neighs:    0 ave 0 max 0 min
Histogram: 16 0 0 0 0 0 0 0 0 0
FullNghs:  18860.9 ave 20322 max 17172 min
Histogram: 2 0 2 2 2 1 2 2 0 3

Total # of neighbors = 301774
Ave neighs/atom = 301.774
Neighbor list builds = 1000
Dangerous builds not checked
Setting up Verlet run ...
  Unit style    : real
  Current step  : 4000
  Time step     : 1
Per MPI rank memory allocation (min/avg/max) = 4.577 | 4.578 | 4.579 Mbytes
Step Temp E_pair E_mol TotEng Press Volume Lx Ly Lz S/CPU 
    4000    302.90258   -10526.125            0   -9624.1324    4466.8912     782.2282    9.2139211    9.2139211    9.2139211            0 
    4100    299.90913   -10509.619            0   -9616.5411    4262.0906    782.53367    9.2151204    9.2151204    9.2151204    49.348118 
    4200    300.37148    -10502.95            0   -9608.4954    184.05188    782.73504    9.2159107    9.2159107    9.2159107    49.077204 
    4300     292.0064   -10468.734            0   -9599.1884   -2198.2052    782.94105    9.2167192    9.2167192    9.2167192    42.009568 
    4400    307.81904   -10509.065            0   -9592.4327   -9796.2733    783.12081    9.2174245    9.2174245    9.2174245    62.784075 
    4500    304.19316   -10490.021            0   -9584.1857   -4822.8474    782.99786    9.2169421    9.2169421    9.2169421    44.724598 
    4600    304.62477   -10484.755            0   -9577.6342    3746.5404    782.68615    9.2157188    9.2157188    9.2157188    56.409511 
    4700    305.03601   -10479.911            0   -9571.5663    10257.677    782.80904    9.2162011    9.2162011    9.2162011    63.668622 
    4800    297.61442    -10452.71            0   -9566.4655    3121.4792    783.38027    9.2184423    9.2184423    9.2184423    50.281639 
    4900    305.62358   -10472.661            0   -9562.5661   -15232.255    784.58421    9.2231624    9.2231624    9.2231624    53.965121 
    5000    301.38356   -10455.959            0   -9558.4906   -4957.6411    785.62418    9.2272357    9.2272357    9.2272357    55.190446 
Loop time of 19.2703 on 16 procs for 1000 steps with 1000 atoms

Performance: 4.484 ns/day, 5.353 hours/ns, 51.893 timesteps/s
94.5% CPU use with 16 MPI tasks x no OpenMP threads

MPI task timing breakdown:
Section |  min time  |  avg time  |  max time  |%varavg| %total
---------------------------------------------------------------
Pair    | 1.6089     | 1.7001     | 1.8647     |   5.2 |  8.82
Neigh   | 0.64735    | 0.67887    | 0.71798    |   2.2 |  3.52
Comm    | 0.74262    | 0.94673    | 1.0586     |   8.7 |  4.91
Output  | 10.707     | 11.034     | 15.884     |  37.7 | 57.26
Modify  | 0.051128   | 4.9015     | 5.2289     |  56.6 | 25.44
Other   |            | 0.008641   |            |       |  0.04

Nlocal:    62.5 ave 68 max 56 min
Histogram: 1 0 0 3 3 2 3 2 1 1
Nghost:    1854.94 ave 1875 max 1838 min
Histogram: 3 2 1 0 3 1 1 2 2 1
Neighs:    0 ave 0 max 0 min
Histogram: 16 0 0 0 0 0 0 0 0 0
FullNghs:  18774.4 ave 20488 max 16763 min
Histogram: 1 0 0 3 4 0 4 2 1 1

Total # of neighbors = 300390
Ave neighs/atom = 300.39
Neighbor list builds = 1000
Dangerous builds not checked
Setting up Verlet run ...
  Unit style    : real
  Current step  : 5000
  Time step     : 1
Per MPI rank memory allocation (min/avg/max) = 4.577 | 4.578 | 4.579 Mbytes
Step Temp E_pair E_mol TotEng Press Volume Lx Ly Lz S/CPU 
    5000    301.38356   -10455.959            0   -9558.4906   -4957.6411    785.62418    9.2272357    9.2272357    9.2272357            0 
    5100     302.7587   -10456.799            0   -9555.2355   -7544.2303    785.98083    9.2286318    9.2286318    9.2286318    45.358447 
    5200    304.73813   -10460.268            0     -9552.81   -10133.683    785.90757     9.228345     9.228345     9.228345    54.084827 
    5300    309.80492   -10476.088            0   -9553.5423    6829.0767     785.4939    9.2267256    9.2267256    9.2267256    43.039689 
    5400    306.82163   -10467.502            0   -9553.8393   -7262.2093    785.17789    9.2254881    9.2254881    9.2254881    58.463876 
    5500     317.6154   -10505.393            0   -9559.5886    12390.384    784.58824    9.2231782    9.2231782    9.2231782    55.814841 
    5600     303.8219   -10470.379            0   -9565.6491   -10888.981    784.01587    9.2209348    9.2209348    9.2209348    45.974757 
    5700    304.78815   -10482.392            0   -9574.7845    7976.5057    783.04769    9.2171376    9.2171376    9.2171376    59.808444 
    5800    310.18722   -10509.325            0     -9585.64   -445.32499    781.82015    9.2123187    9.2123187    9.2123187    43.950343 
    5900    292.41897   -10465.648            0   -9594.8746    1960.4963    780.66351    9.2077735    9.2077735    9.2077735    60.605567 
    6000    300.19652   -10497.524            0   -9603.5904    16714.328     779.9734    9.2050594    9.2050594    9.2050594    68.305178 
Loop time of 19.1156 on 16 procs for 1000 steps with 1000 atoms

Performance: 4.520 ns/day, 5.310 hours/ns, 52.313 timesteps/s
94.5% CPU use with 16 MPI tasks x no OpenMP threads

MPI task timing breakdown:
Section |  min time  |  avg time  |  max time  |%varavg| %total
---------------------------------------------------------------
Pair    | 1.5422     | 1.6236     | 1.785      |   4.5 |  8.49
Neigh   | 0.63439    | 0.6517     | 0.68441    |   1.5 |  3.41
Comm    | 0.75866    | 0.95149    | 1.0457     |   6.8 |  4.98
Output  | 10.763     | 11.084     | 15.851     |  37.0 | 57.99
Modify  | 0.028086   | 4.7959     | 5.1178     |  56.2 | 25.09
Other   |            | 0.008528   |            |       |  0.04

Nlocal:    62.5 ave 66 max 57 min
Histogram: 1 0 2 0 4 0 2 3 1 3
Nghost:    1859.88 ave 1881 max 1828 min
Histogram: 1 0 2 1 0 4 2 1 1 4
Neighs:    0 ave 0 max 0 min
Histogram: 16 0 0 0 0 0 0 0 0 0
FullNghs:  18934.5 ave 20144 max 17200 min
Histogram: 1 1 1 0 4 0 2 3 1 3

Total # of neighbors = 302952
Ave neighs/atom = 302.952
Neighbor list builds = 1000
Dangerous builds not checked
Setting up Verlet run ...
  Unit style    : real
  Current step  : 6000
  Time step     : 1
Per MPI rank memory allocation (min/avg/max) = 4.577 | 4.578 | 4.579 Mbytes
Step Temp E_pair E_mol TotEng Press Volume Lx Ly Lz S/CPU 
    6000    300.19652   -10497.524            0   -9603.5904    16714.328     779.9734    9.2050594    9.2050594    9.2050594            0 
    6100    290.71647   -10477.121            0   -9611.4172    6390.5633    779.90575    9.2047933    9.2047933    9.2047933     56.50172 
    6200    293.78132   -10494.419            0   -9619.5885    6179.6515    780.32956    9.2064603    9.2064603    9.2064603    64.562876 
    6300    288.18395   -10482.437            0   -9624.2744     6414.796    781.13005    9.2096074    9.2096074    9.2096074    62.874376 
    6400    298.88378   -10519.661            0   -9629.6361   -1862.2732    782.37429    9.2144947    9.2144947    9.2144947    49.345763 
    6500      283.759   -10477.519            0    -9632.533   -13566.091    783.41037    9.2185604    9.2185604    9.2185604    50.000543 
    6600    298.96927   -10525.859            0   -9635.5791   -4745.3878    783.94292    9.2206488    9.2206488    9.2206488    55.773401 
    6700    296.96979   -10521.495            0   -9637.1692   -4455.0341    784.00888    9.2209074    9.2209074    9.2209074    41.612239 
    6800    288.22137   -10494.512            0   -9636.2379   -8803.1082    783.81964    9.2201654    9.2201654    9.2201654    57.194755 
    6900    297.25885   -10520.846            0   -9635.6598   -15057.432    783.39073    9.2184834    9.2184834    9.2184834    47.639983 
    7000    297.56001    -10518.78            0   -9632.6971    1519.1814    782.45834    9.2148246    9.2148246    9.2148246    57.801707 
Loop time of 18.7094 on 16 procs for 1000 steps with 1000 atoms

Performance: 4.618 ns/day, 5.197 hours/ns, 53.449 timesteps/s
94.5% CPU use with 16 MPI tasks x no OpenMP threads

MPI task timing breakdown:
Section |  min time  |  avg time  |  max time  |%varavg| %total
---------------------------------------------------------------
Pair    | 1.5905     | 1.6877     | 1.8582     |   5.7 |  9.02
Neigh   | 0.63773    | 0.67393    | 0.71395    |   2.6 |  3.60
Comm    | 0.71866    | 0.92891    | 1.0616     |   9.6 |  4.96
Output  | 10.19      | 10.518     | 15.369     |  38.6 | 56.22
Modify  | 0.040001   | 4.8925     | 5.2198     |  56.6 | 26.15
Other   |            | 0.00863    |            |       |  0.05

Nlocal:    62.5 ave 68 max 57 min
Histogram: 1 2 2 1 3 0 3 2 0 2
Nghost:    1861.12 ave 1879 max 1840 min
Histogram: 1 1 2 0 2 2 4 0 3 1
Neighs:    0 ave 0 max 0 min
Histogram: 16 0 0 0 0 0 0 0 0 0
FullNghs:  18853 ave 20554 max 17045 min
Histogram: 1 2 2 0 2 3 1 3 0 2

Total # of neighbors = 301648
Ave neighs/atom = 301.648
Neighbor list builds = 1000
Dangerous builds not checked
Setting up Verlet run ...
  Unit style    : real
  Current step  : 7000
  Time step     : 1
Per MPI rank memory allocation (min/avg/max) = 4.577 | 4.578 | 4.579 Mbytes
Step Temp E_pair E_mol TotEng Press Volume Lx Ly Lz S/CPU 
    7000    297.56001    -10518.78            0   -9632.6971    1519.1814    782.45834    9.2148246    9.2148246    9.2148246            0 
    7100    290.11997   -10492.017            0   -9628.0895   -10432.574    781.24603    9.2100631    9.2100631    9.2100631    52.277133 
    7200    303.68687    -10528.98            0   -9624.6524    3099.5822    779.84257    9.2045447    9.2045447    9.2045447    45.546083 
    7300    304.44931   -10525.985            0   -9619.3869    7122.3407    779.06524    9.2014854    9.2014854    9.2014854    64.389647 
    7400    320.71005   -10567.157            0   -9612.1376    17122.135    779.11243    9.2016712    9.2016712    9.2016712    47.478475 
    7500    299.30343   -10490.971            0   -9599.6962    3902.2138    779.87966    9.2046907    9.2046907    9.2046907    57.354403 
    7600    308.14392   -10503.147            0   -9585.5472    13806.473    781.05554    9.2093145    9.2093145    9.2093145    45.755394 
    7700    314.27447   -10504.888            0   -9569.0321      1829.67    782.50218    9.2149967    9.2149967    9.2149967    50.592827 
    7800    304.60601   -10458.418            0   -9551.3533    4522.2859    784.35981     9.222283     9.222283     9.222283     58.75874 
    7900    302.84348   -10440.804            0   -9538.9878   -2605.9073     786.6934    9.2314198    9.2314198    9.2314198    43.415269 
    8000    314.35299   -10469.261            0   -9533.1711    6050.5155    789.26054    9.2414503    9.2414503    9.2414503    43.449438 
Loop time of 19.9801 on 16 procs for 1000 steps with 1000 atoms

Performance: 4.324 ns/day, 5.550 hours/ns, 50.050 timesteps/s
94.5% CPU use with 16 MPI tasks x no OpenMP threads

MPI task timing breakdown:
Section |  min time  |  avg time  |  max time  |%varavg| %total
---------------------------------------------------------------
Pair    | 1.5687     | 1.6847     | 1.8602     |   6.3 |  8.43
Neigh   | 0.63895    | 0.67277    | 0.72693    |   2.7 |  3.37
Comm    | 0.7149     | 0.94441    | 1.0787     |  10.4 |  4.73
Output  | 10.733     | 11.106     | 16.635     |  42.8 | 55.59
Modify  | 0.0341     | 5.5634     | 5.9369     |  60.5 | 27.84
Other   |            | 0.008606   |            |       |  0.04

Nlocal:    62.5 ave 69 max 58 min
Histogram: 1 4 2 3 2 1 0 1 0 2
Nghost:    1851.75 ave 1866 max 1841 min
Histogram: 3 1 1 2 3 2 2 0 0 2
Neighs:    0 ave 0 max 0 min
Histogram: 16 0 0 0 0 0 0 0 0 0
FullNghs:  18704.9 ave 20784 max 17488 min
Histogram: 1 4 3 3 2 0 0 1 0 2

Total # of neighbors = 299278
Ave neighs/atom = 299.278
Neighbor list builds = 1000
Dangerous builds not checked
Setting up Verlet run ...
  Unit style    : real
  Current step  : 8000
  Time step     : 1
Per MPI rank memory allocation (min/avg/max) = 4.577 | 4.578 | 4.579 Mbytes
Step Temp E_pair E_mol TotEng Press Volume Lx Ly Lz S/CPU 
    8000    314.35299   -10469.261            0   -9533.1711    6050.5155    789.26054    9.2414503    9.2414503    9.2414503            0 
    8100    290.43464   -10394.716            0   -9529.8507   -1841.9608    791.75335    9.2511695    9.2511695    9.2511695    34.009027 
    8200    313.04173   -10462.073            0   -9529.8878   -20818.402    793.83415    9.2592667    9.2592667    9.2592667    54.326609 
    8300    291.42896   -10398.062            0   -9530.2365   -21488.707    794.53153    9.2619773    9.2619773    9.2619773    54.046264 
    8400    312.40815   -10465.175            0   -9534.8772   -7724.1136    793.90536    9.2595435    9.2595435    9.2595435    40.307358 
    8500    300.63864   -10434.559            0   -9539.3083     4350.279    792.36492    9.2535508    9.2535508    9.2535508    58.299616 
    8600    318.73638   -10496.745            0   -9547.6027    282.41352    790.39696    9.2458836    9.2458836    9.2458836    47.805588 
    8700    292.76155   -10424.442            0   -9552.6476    4823.4747    788.18572    9.2372533    9.2372533    9.2372533    52.683497 
    8800    313.16143   -10493.691            0   -9561.1501     635.4794    786.52804     9.230773     9.230773     9.230773    50.378068 
    8900    300.03755   -10462.212            0   -9568.7515    10826.834    785.24453    9.2257491    9.2257491    9.2257491    59.502323 
    9000    303.85823    -10480.02            0    -9575.182   -2878.2211    784.04872    9.2210636    9.2210636    9.2210636    44.636768 
Loop time of 20.7235 on 16 procs for 1000 steps with 1000 atoms

Performance: 4.169 ns/day, 5.757 hours/ns, 48.255 timesteps/s
94.5% CPU use with 16 MPI tasks x no OpenMP threads

MPI task timing breakdown:
Section |  min time  |  avg time  |  max time  |%varavg| %total
---------------------------------------------------------------
Pair    | 1.4909     | 1.6199     | 1.7999     |   6.1 |  7.82
Neigh   | 0.62635    | 0.65895    | 0.71832    |   2.8 |  3.18
Comm    | 0.70859    | 0.94768    | 1.0833     |  10.0 |  4.57
Output  | 11.878     | 12.23      | 17.451     |  38.5 | 59.02
Modify  | 0.036751   | 5.2583     | 5.6097     |  58.8 | 25.37
Other   |            | 0.008515   |            |       |  0.04

Nlocal:    62.5 ave 68 max 55 min
Histogram: 3 0 1 0 2 1 1 4 1 3
Nghost:    1857.56 ave 1888 max 1824 min
Histogram: 1 1 1 2 2 3 1 2 2 1
Neighs:    0 ave 0 max 0 min
Histogram: 16 0 0 0 0 0 0 0 0 0
FullNghs:  18816.9 ave 20574 max 16455 min
Histogram: 3 0 0 1 2 1 1 3 3 2

Total # of neighbors = 301070
Ave neighs/atom = 301.07
Neighbor list builds = 1000
Dangerous builds not checked
Setting up Verlet run ...
  Unit style    : real
  Current step  : 9000
  Time step     : 1
Per MPI rank memory allocation (min/avg/max) = 4.577 | 4.578 | 4.579 Mbytes
Step Temp E_pair E_mol TotEng Press Volume Lx Ly Lz S/CPU 
    9000    303.85823    -10480.02            0    -9575.182   -2878.2211    784.04872    9.2210636    9.2210636    9.2210636            0 
    9100      316.452   -10526.931            0   -9584.5906    14893.857    782.54484    9.2151642    9.2151642    9.2151642    36.588855 
    9200    304.07592   -10497.854            0    -9592.368    4844.5054    781.08883    9.2094454    9.2094454    9.2094454    61.841446 
    9300    307.32633   -10516.431            0   -9601.2658   -519.55368    780.03329     9.205295     9.205295     9.205295    45.711726 
    9400    299.26685    -10497.48            0   -9606.3149     10747.05    779.35492    9.2026258    9.2026258    9.2026258    54.738567 
    9500    296.06855   -10493.748            0   -9612.1061     6376.758    779.09744    9.2016122    9.2016122    9.2016122    47.279413 
    9600    303.57521   -10522.627            0   -9618.6316    -1296.961     779.0783    9.2015368    9.2015368    9.2015368    52.307588 
    9700    309.16154   -10544.178            0   -9623.5476   -5461.1972    779.03265    9.2013571    9.2013571    9.2013571    57.909159 
    9800    304.79493    -10535.13            0   -9627.5029    9951.4398     778.6308    9.1997747    9.1997747    9.1997747    52.787477 
    9900    292.17141   -10500.969            0   -9630.9328   -1665.1884    778.39551    9.1988479    9.1988479    9.1988479    58.418938 
   10000     305.5818   -10544.285            0   -9634.3146    4554.7928     778.0605    9.1975281    9.1975281    9.1975281    57.495821 
Loop time of 19.4637 on 16 procs for 1000 steps with 1000 atoms

Performance: 4.439 ns/day, 5.407 hours/ns, 51.378 timesteps/s
94.5% CPU use with 16 MPI tasks x no OpenMP threads

MPI task timing breakdown:
Section |  min time  |  avg time  |  max time  |%varavg| %total
---------------------------------------------------------------
Pair    | 1.5533     | 1.6968     | 1.7984     |   5.7 |  8.72
Neigh   | 0.6386     | 0.67579    | 0.7114     |   2.7 |  3.47
Comm    | 0.81146    | 0.94904    | 1.1048     |   9.7 |  4.88
Output  | 10.732     | 11.071     | 16.102     |  39.0 | 56.88
Modify  | 0.031997   | 5.0622     | 5.4013     |  57.7 | 26.01
Other   |            | 0.008669   |            |       |  0.04

Nlocal:    62.5 ave 70 max 56 min
Histogram: 1 1 3 3 0 3 2 1 1 1
Nghost:    1864.44 ave 1887 max 1845 min
Histogram: 2 0 2 4 2 1 1 2 0 2
Neighs:    0 ave 0 max 0 min
Histogram: 16 0 0 0 0 0 0 0 0 0
FullNghs:  18973.4 ave 21388 max 17011 min
Histogram: 2 0 4 1 3 1 2 1 1 1

Total # of neighbors = 303574
Ave neighs/atom = 303.574
Neighbor list builds = 1000
Dangerous builds not checked
Setting up Verlet run ...
  Unit style    : real
  Current step  : 10000
  Time step     : 1
Per MPI rank memory allocation (min/avg/max) = 4.577 | 4.578 | 4.579 Mbytes
Step Temp E_pair E_mol TotEng Press Volume Lx Ly Lz S/CPU 
   10000     305.5818   -10544.285            0   -9634.3146    4554.7928     778.0605    9.1975281    9.1975281    9.1975281            0 
   10100    299.14328   -10528.244            0   -9637.4463   -20362.719     777.9537    9.1971072    9.1971072    9.1971072    37.465935 
   10200    303.15353   -10543.149            0   -9640.4097    131.18446    777.66846     9.195983     9.195983     9.195983    54.416108 
   10300    300.33958   -10536.909            0   -9642.5488    10777.991    777.59195    9.1956815    9.1956815    9.1956815    52.098897 
   10400    309.04981    -10566.41            0   -9646.1128     8123.219    778.16247    9.1979299    9.1979299    9.1979299    60.840907 
   10500     303.2096   -10551.889            0   -9648.9822    9351.9385     779.2331    9.2021462    9.2021462    9.2021462    39.708328 
   10600    290.34477   -10516.007            0   -9651.4098    2381.1729    780.46811    9.2070052    9.2070052    9.2070052    54.878215 
   10700    294.69678   -10533.505            0   -9655.9479   -5679.1069    781.70629    9.2118714    9.2118714    9.2118714    58.107941 
   10800    285.58418   -10507.751            0   -9657.3297   -3677.7058    783.15873    9.2175733    9.2175733    9.2175733    51.300843 
   10900    287.35928   -10513.792            0   -9658.0856     8200.437    784.31544    9.2221091    9.2221091    9.2221091    62.398175 
   11000    290.68475   -10523.822            0   -9658.2124   -16267.058     785.1888    9.2255309    9.2255309    9.2255309    48.469928 
Loop time of 19.7464 on 16 procs for 1000 steps with 1000 atoms

Performance: 4.375 ns/day, 5.485 hours/ns, 50.642 timesteps/s
94.5% CPU use with 16 MPI tasks x no OpenMP threads

MPI task timing breakdown:
Section |  min time  |  avg time  |  max time  |%varavg| %total
---------------------------------------------------------------
Pair    | 1.59       | 1.6975     | 1.8143     |   5.6 |  8.60
Neigh   | 0.63719    | 0.67445    | 0.71525    |   2.9 |  3.42
Comm    | 0.79029    | 0.94152    | 1.0732     |   9.8 |  4.77
Output  | 11.241     | 11.566     | 16.377     |  36.5 | 58.57
Modify  | 0.046352   | 4.8582     | 5.1829     |  56.4 | 24.60
Other   |            | 0.008687   |            |       |  0.04

Nlocal:    62.5 ave 65 max 60 min
Histogram: 1 0 5 0 4 0 0 0 3 3
Nghost:    1855.44 ave 1871 max 1844 min
Histogram: 3 1 1 1 5 1 1 2 0 1
Neighs:    0 ave 0 max 0 min
Histogram: 16 0 0 0 0 0 0 0 0 0
FullNghs:  18810.6 ave 19713 max 18011 min
Histogram: 1 4 1 3 1 0 0 3 0 3

Total # of neighbors = 300970
Ave neighs/atom = 300.97
Neighbor list builds = 1000
Dangerous builds not checked
Setting up Verlet run ...
  Unit style    : real
  Current step  : 11000
  Time step     : 1
Per MPI rank memory allocation (min/avg/max) = 4.577 | 4.578 | 4.579 Mbytes
Step Temp E_pair E_mol TotEng Press Volume Lx Ly Lz S/CPU 
   11000    290.68475   -10523.822            0   -9658.2124   -16267.058     785.1888    9.2255309    9.2255309    9.2255309            0 
   11100    291.57063   -10524.366            0   -9656.1189     -8111.15     785.4105     9.226399     9.226399     9.226399    50.905376 
   11200     296.2139   -10532.877            0   -9650.8029    -10306.98    785.32232    9.2260538    9.2260538    9.2260538    52.628871 
   11300    305.32838   -10551.062            0   -9641.8461    1275.9347    784.66829    9.2234918    9.2234918    9.2234918    54.532864 
   11400     302.1502   -10527.614            0   -9627.8626   -15387.106    783.70746    9.2197255    9.2197255    9.2197255    67.127697 
   11500    300.67228   -10509.618            0    -9614.267    745.39409    782.19075    9.2137741    9.2137741    9.2137741    62.603697 
   11600     305.8803   -10512.167            0   -9601.3073   -4748.8977    780.78315    9.2082438    9.2082438    9.2082438    58.864496 
   11700     301.1803    -10486.95            0   -9590.0862     4616.035    779.59261    9.2035612    9.2035612    9.2035612    71.498206 
   11800    298.07953   -10469.544            0   -9581.9142    1866.0703    778.27454    9.1983714    9.1983714    9.1983714    50.395571 
   11900    302.09415    -10475.45            0   -9575.8649    -523.1806    776.86309    9.1928074    9.1928074    9.1928074    57.054289 
   12000    302.96849   -10471.583            0   -9569.3943    15712.893    775.56051    9.1876666    9.1876666    9.1876666    61.968334 
Loop time of 17.2336 on 16 procs for 1000 steps with 1000 atoms

Performance: 5.013 ns/day, 4.787 hours/ns, 58.026 timesteps/s
94.7% CPU use with 16 MPI tasks x no OpenMP threads

MPI task timing breakdown:
Section |  min time  |  avg time  |  max time  |%varavg| %total
---------------------------------------------------------------
Pair    | 1.6135     | 1.7041     | 1.8464     |   5.0 |  9.89
Neigh   | 0.65504    | 0.68032    | 0.71749    |   2.0 |  3.95
Comm    | 0.76382    | 0.94286    | 1.0536     |   8.2 |  5.47
Output  | 9.4976     | 9.7739     | 13.855     |  33.7 | 56.71
Modify  | 0.042025   | 4.1237     | 4.3999     |  51.9 | 23.93
Other   |            | 0.008706   |            |       |  0.05

Nlocal:    62.5 ave 67 max 57 min
Histogram: 1 0 1 3 1 0 2 5 2 1
Nghost:    1870.75 ave 1889 max 1854 min
Histogram: 3 0 1 2 3 1 2 1 2 1
Neighs:    0 ave 0 max 0 min
Histogram: 16 0 0 0 0 0 0 0 0 0
FullNghs:  19042.4 ave 20583 max 17171 min
Histogram: 1 1 2 2 0 1 3 3 2 1

Total # of neighbors = 304678
Ave neighs/atom = 304.678
Neighbor list builds = 1000
Dangerous builds not checked
Setting up Verlet run ...
  Unit style    : real
  Current step  : 12000
  Time step     : 1
Per MPI rank memory allocation (min/avg/max) = 4.577 | 4.578 | 4.579 Mbytes
Step Temp E_pair E_mol TotEng Press Volume Lx Ly Lz S/CPU 
   12000    302.96849   -10471.583            0   -9569.3943    15712.893    775.56051    9.1876666    9.1876666    9.1876666            0 
   12100    303.98127   -10472.397            0   -9567.1927    20876.587    774.98099    9.1853777    9.1853777    9.1853777    46.317499 
   12200    309.48387   -10486.275            0   -9564.6845    10268.796    775.34214    9.1868043    9.1868043    9.1868043    53.916239 
   12300    309.21495   -10487.059            0   -9566.2702    17075.341    776.81469    9.1926165    9.1926165    9.1926165     48.85029 
   12400    320.81627   -10524.424            0   -9569.0879    13979.703    779.58718    9.2035399    9.2035399    9.2035399    44.009669 
   12500    309.34049   -10494.929            0   -9573.7663   -7402.1228     783.2822    9.2180576    9.2180576    9.2180576    45.184319 
   12600    310.65402   -10504.047            0   -9578.9729   -7015.3914    787.13165    9.2331337    9.2331337    9.2331337    44.655531 
   12700    298.08109   -10472.042            0   -9584.4076   -6979.3964    790.85392     9.247665     9.247665     9.247665    54.846336 
   12800    289.06515   -10451.764            0   -9590.9774   -28099.937    793.84478     9.259308     9.259308     9.259308    51.137967 
   12900     296.5987   -10482.867            0   -9599.6472   -10972.399    795.49336    9.2657132    9.2657132    9.2657132    54.680797 
   13000    292.97979   -10479.284            0   -9606.8398   -28467.264    795.85315    9.2671099    9.2671099    9.2671099    58.166638 
Loop time of 20.1123 on 16 procs for 1000 steps with 1000 atoms

Performance: 4.296 ns/day, 5.587 hours/ns, 49.721 timesteps/s
94.5% CPU use with 16 MPI tasks x no OpenMP threads

MPI task timing breakdown:
Section |  min time  |  avg time  |  max time  |%varavg| %total
---------------------------------------------------------------
Pair    | 1.5506     | 1.6405     | 1.7582     |   5.0 |  8.16
Neigh   | 0.62977    | 0.65973    | 0.70467    |   2.5 |  3.28
Comm    | 0.80457    | 0.96697    | 1.0688     |   8.2 |  4.81
Output  | 10.617     | 11.008     | 16.805     |  45.1 | 54.73
Modify  | 0.031059   | 5.8288     | 6.219      |  62.0 | 28.98
Other   |            | 0.008538   |            |       |  0.04

Nlocal:    62.5 ave 67 max 57 min
Histogram: 1 1 2 1 1 0 3 3 0 4
Nghost:    1833.31 ave 1852 max 1807 min
Histogram: 1 0 1 2 2 1 3 3 2 1
Neighs:    0 ave 0 max 0 min
Histogram: 16 0 0 0 0 0 0 0 0 0
FullNghs:  18531.4 ave 19942 max 16803 min
Histogram: 2 1 2 0 1 2 4 0 1 3

Total # of neighbors = 296502
Ave neighs/atom = 296.502
Neighbor list builds = 1000
Dangerous builds not checked
Setting up Verlet run ...
  Unit style    : real
  Current step  : 13000
  Time step     : 1
Per MPI rank memory allocation (min/avg/max) = 4.578 | 4.579 | 4.579 Mbytes
Step Temp E_pair E_mol TotEng Press Volume Lx Ly Lz S/CPU 
   13000    292.97979   -10479.284            0   -9606.8398   -28467.264    795.85315    9.2671099    9.2671099    9.2671099            0 
   13100    281.72709   -10453.869            0   -9614.9341   -30168.183    794.40767     9.261496     9.261496     9.261496    39.697005 
   13200    290.31939   -10487.603            0   -9623.0819   -15095.368     791.1147    9.2486814    9.2486814    9.2486814    43.396739 
   13300     298.7921   -10520.174            0    -9630.422   -6561.9337     786.8283    9.2319475    9.2319475    9.2319475    49.784333 
   13400    297.52824   -10521.715            0   -9635.7266    4231.8478    781.91195    9.2126792    9.2126792    9.2126792    56.419092 
   13500    293.55711   -10514.479            0    -9640.316    24522.498    777.52863    9.1954319    9.1954319    9.1954319    41.932405 
   13600    290.50566   -10508.985            0   -9643.9089     28980.95     774.2765    9.1825935    9.1825935    9.1825935    53.028131 
   13700    289.99898   -10512.741            0   -9649.1731    4725.2058    772.20347    9.1743911    9.1743911    9.1743911    52.982228 
   13800    303.06798   -10559.371            0   -9656.8859    9317.6425    771.08115    9.1699443    9.1699443    9.1699443    48.680077 
   13900    293.24813   -10538.928            0    -9665.685    14478.495    770.88973    9.1691854    9.1691854    9.1691854    45.325364 
   14000    289.22331   -10540.261            0   -9679.0035    18282.451    771.65274    9.1722095    9.1722095    9.1722095    49.075855 
Loop time of 21.0607 on 16 procs for 1000 steps with 1000 atoms

Performance: 4.102 ns/day, 5.850 hours/ns, 47.482 timesteps/s
94.4% CPU use with 16 MPI tasks x no OpenMP threads

MPI task timing breakdown:
Section |  min time  |  avg time  |  max time  |%varavg| %total
---------------------------------------------------------------
Pair    | 1.5259     | 1.636      | 1.8248     |   5.6 |  7.77
Neigh   | 0.60755    | 0.65257    | 0.70816    |   2.9 |  3.10
Comm    | 0.73906    | 0.98296    | 1.1327     |   9.3 |  4.67
Output  | 12.1       | 12.456     | 17.746     |  38.7 | 59.14
Modify  | 0.034095   | 5.3246     | 5.6807     |  59.2 | 25.28
Other   |            | 0.008542   |            |       |  0.04

Nlocal:    62.5 ave 68 max 57 min
Histogram: 1 1 1 3 4 1 0 3 0 2
Nghost:    1869.25 ave 1893 max 1848 min
Histogram: 2 1 1 1 4 3 0 0 3 1
Neighs:    0 ave 0 max 0 min
Histogram: 16 0 0 0 0 0 0 0 0 0
FullNghs:  19122.1 ave 20883 max 17386 min
Histogram: 1 0 2 3 4 1 1 2 0 2

Total # of neighbors = 305954
Ave neighs/atom = 305.954
Neighbor list builds = 1000
Dangerous builds not checked
Setting up Verlet run ...
  Unit style    : real
  Current step  : 14000
  Time step     : 1
Per MPI rank memory allocation (min/avg/max) = 4.578 | 4.579 | 4.579 Mbytes
Step Temp E_pair E_mol TotEng Press Volume Lx Ly Lz S/CPU 
   14000    289.22331   -10540.261            0   -9679.0035    18282.451    771.65274    9.1722095    9.1722095    9.1722095            0 
   14100    288.15528   -10552.037            0   -9693.9596    3510.7524    773.14405    9.1781145    9.1781145    9.1781145     57.04773 
   14200    291.78091   -10575.229            0   -9706.3555    4852.3335    775.22456    9.1863398    9.1863398    9.1863398    45.702312 
   14300    287.20006   -10569.706            0   -9714.4729   -6116.8919    777.59111    9.1956781    9.1956781    9.1956781    52.867624 
   14400    286.33548    -10573.04            0   -9720.3814   -5545.5277    779.69471     9.203963     9.203963     9.203963    51.236331 
   14500    284.15258    -10568.29            0   -9722.1325   -9494.8876    781.15283    9.2096969    9.2096969    9.2096969    55.172632 
   14600    284.57258   -10570.166            0   -9722.7576    2459.6343    782.01768    9.2130945    9.2130945    9.2130945    57.165582 
   14700    279.57417   -10550.939            0   -9718.4144   -8052.0956    782.54971    9.2151833    9.2151833    9.2151833    43.143185 
   14800     282.5355   -10553.191            0   -9711.8487   -4897.5535    782.62731    9.2154879    9.2154879    9.2154879    63.754265 
   14900    286.93142   -10557.525            0   -9703.0921   -5104.3299    782.43885    9.2147481    9.2147481    9.2147481    40.112497 
   15000    290.60584   -10555.462            0   -9690.0878    666.11791    781.70642     9.211872     9.211872     9.211872    53.436625 
Loop time of 19.5968 on 16 procs for 1000 steps with 1000 atoms

Performance: 4.409 ns/day, 5.444 hours/ns, 51.029 timesteps/s
94.5% CPU use with 16 MPI tasks x no OpenMP threads

MPI task timing breakdown:
Section |  min time  |  avg time  |  max time  |%varavg| %total
---------------------------------------------------------------
Pair    | 1.5227     | 1.6774     | 1.837      |   7.0 |  8.56
Neigh   | 0.62703    | 0.66772    | 0.70573    |   2.6 |  3.41
Comm    | 0.76263    | 0.95908    | 1.1534     |  11.2 |  4.89
Output  | 10.93      | 11.266     | 16.252     |  38.4 | 57.49
Modify  | 0.030904   | 5.0179     | 5.3548     |  57.5 | 25.61
Other   |            | 0.008654   |            |       |  0.04

Nlocal:    62.5 ave 67 max 56 min
Histogram: 1 0 1 1 2 2 2 5 0 2
Nghost:    1881.5 ave 1907 max 1861 min
Histogram: 4 1 0 2 1 2 2 2 1 1
Neighs:    0 ave 0 max 0 min
Histogram: 16 0 0 0 0 0 0 0 0 0
FullNghs:  18885.1 ave 20301 max 16747 min
Histogram: 1 0 1 1 2 2 2 5 0 2

Total # of neighbors = 302162
Ave neighs/atom = 302.162
Neighbor list builds = 1000
Dangerous builds not checked
Setting up Verlet run ...
  Unit style    : real
  Current step  : 15000
  Time step     : 1
Per MPI rank memory allocation (min/avg/max) = 4.578 | 4.579 | 4.579 Mbytes
Step Temp E_pair E_mol TotEng Press Volume Lx Ly Lz S/CPU 
   15000    290.60584   -10555.462            0   -9690.0878    666.11791    781.70642     9.211872     9.211872     9.211872            0 
   15100    289.09413   -10537.351            0   -9676.4779    -3284.316    780.71453    9.2079741    9.2079741    9.2079741    38.961887 
   15200    290.26903   -10531.448            0   -9667.0765    7057.2532    779.43182    9.2029284    9.2029284    9.2029284    39.838536 
   15300    294.11751   -10534.874            0   -9659.0423   -1765.0013    778.26852    9.1983477    9.1983477    9.1983477    56.977227 
   15400    286.55296   -10504.456            0     -9651.15    1966.2844    777.29709     9.194519     9.194519     9.194519    47.276573 
   15500    295.72395   -10526.251            0   -9645.6353    10178.158    776.70943    9.1922013    9.1922013    9.1922013      53.7867 
   15600    307.32387   -10556.042            0   -9640.8841    8824.2753    776.49438    9.1913529    9.1913529    9.1913529     45.55706 
   15700    289.32631   -10495.376            0   -9633.8112    12792.781    777.15892    9.1939742    9.1939742    9.1939742    45.238954 
   15800    299.75419   -10522.447            0     -9629.83    8123.5058    778.71711    9.2001147    9.2001147    9.2001147    53.631037 
   15900     302.3138   -10527.592            0    -9627.353    6571.5264    780.83035    9.2084294    9.2084294    9.2084294    54.980055 
   16000    301.11016   -10520.625            0   -9623.9707    4237.7915    783.27463    9.2180279    9.2180279    9.2180279    61.442277 
Loop time of 20.5228 on 16 procs for 1000 steps with 1000 atoms

Performance: 4.210 ns/day, 5.701 hours/ns, 48.726 timesteps/s
94.4% CPU use with 16 MPI tasks x no OpenMP threads

MPI task timing breakdown:
Section |  min time  |  avg time  |  max time  |%varavg| %total
---------------------------------------------------------------
Pair    | 1.5916     | 1.7139     | 1.9562     |   7.0 |  8.35
Neigh   | 0.64791    | 0.67973    | 0.74552    |   2.7 |  3.31
Comm    | 0.62463    | 0.93221    | 1.0731     |  11.4 |  4.54
Output  | 11.347     | 11.713     | 17.152     |  41.0 | 57.08
Modify  | 0.035648   | 5.4749     | 5.8416     |  60.0 | 26.68
Other   |            | 0.008681   |            |       |  0.04

Nlocal:    62.5 ave 69 max 55 min
Histogram: 2 0 1 1 1 5 2 1 0 3
Nghost:    1859.5 ave 1877 max 1839 min
Histogram: 1 0 1 4 0 3 1 4 1 1
Neighs:    0 ave 0 max 0 min
Histogram: 16 0 0 0 0 0 0 0 0 0
FullNghs:  18843.2 ave 20850 max 16655 min
Histogram: 2 0 2 0 4 2 3 0 0 3

Total # of neighbors = 301492
Ave neighs/atom = 301.492
Neighbor list builds = 1000
Dangerous builds not checked
Setting up Verlet run ...
  Unit style    : real
  Current step  : 16000
  Time step     : 1
Per MPI rank memory allocation (min/avg/max) = 4.578 | 4.579 | 4.579 Mbytes
Step Temp E_pair E_mol TotEng Press Volume Lx Ly Lz S/CPU 
   16000    301.11016   -10520.625            0   -9623.9707    4237.7915    783.27463    9.2180279    9.2180279    9.2180279            0 
   16100    296.92612   -10507.133            0   -9622.9375   -8008.8959    785.94748    9.2285012    9.2285012    9.2285012    38.205635 
   16200     296.7974   -10503.372            0   -9619.5596   -12157.042    788.26604    9.2375671    9.2375671    9.2375671     62.60922 
   16300    292.47117   -10487.403            0    -9616.474   -10188.774    790.12375    9.2448181    9.2448181    9.2448181     57.11472 
   16400    293.69592   -10487.068            0   -9612.4921   -10141.883    791.57643    9.2504803    9.2504803    9.2504803    56.037136 
   16500    292.73426   -10477.852            0   -9606.1399   -1092.6807    792.13329     9.252649     9.252649     9.252649    60.733602 
   16600    303.43871   -10505.036            0    -9601.447   -17441.101    792.20413    9.2529248    9.2529248    9.2529248     49.19751 
   16700    296.86959    -10479.53            0   -9595.5032   -2190.3872    791.36008    9.2496375    9.2496375    9.2496375    44.123003 
   16800    304.20939   -10495.196            0   -9589.3128    3449.6479    789.76568    9.2434214    9.2434214    9.2434214    41.514584 
   16900    295.62398   -10461.356            0   -9581.0381    -12087.87    788.48275    9.2384135    9.2384135    9.2384135    47.839206 
   17000    305.75672   -10486.416            0   -9575.9244    3413.3782    786.92931    9.2323425    9.2323425    9.2323425    45.424841 
Loop time of 20.3962 on 16 procs for 1000 steps with 1000 atoms

Performance: 4.236 ns/day, 5.666 hours/ns, 49.029 timesteps/s
94.5% CPU use with 16 MPI tasks x no OpenMP threads

MPI task timing breakdown:
Section |  min time  |  avg time  |  max time  |%varavg| %total
---------------------------------------------------------------
Pair    | 1.5038     | 1.6295     | 1.7234     |   5.1 |  7.99
Neigh   | 0.62776    | 0.66052    | 0.68861    |   2.2 |  3.24
Comm    | 0.83286    | 0.94738    | 1.0884     |   8.2 |  4.64
Output  | 11.791     | 12.127     | 17.116     |  37.0 | 59.46
Modify  | 0.033235   | 5.0228     | 5.3595     |  57.5 | 24.63
Other   |            | 0.008516   |            |       |  0.04

Nlocal:    62.5 ave 68 max 55 min
Histogram: 1 0 0 2 2 1 8 1 0 1
Nghost:    1848.56 ave 1872 max 1832 min
Histogram: 2 2 2 3 0 3 1 1 1 1
Neighs:    0 ave 0 max 0 min
Histogram: 16 0 0 0 0 0 0 0 0 0
FullNghs:  18779.5 ave 20654 max 16449 min
Histogram: 1 0 0 1 3 2 7 1 0 1

Total # of neighbors = 300472
Ave neighs/atom = 300.472
Neighbor list builds = 1000
Dangerous builds not checked
Setting up Verlet run ...
  Unit style    : real
  Current step  : 17000
  Time step     : 1
Per MPI rank memory allocation (min/avg/max) = 4.578 | 4.579 | 4.579 Mbytes
Step Temp E_pair E_mol TotEng Press Volume Lx Ly Lz S/CPU 
   17000    305.75672   -10486.416            0   -9575.9244    3413.3782    786.92931    9.2323425    9.2323425    9.2323425            0 
   17100    295.50995   -10447.673            0   -9567.6952   -3134.9718    785.24007    9.2257316    9.2257316    9.2257316    47.547287 
   17200    295.41846   -10439.693            0   -9559.9876    4315.4458    783.55211    9.2191163    9.2191163    9.2191163    47.998214 
   17300    301.89286   -10451.562            0   -9552.5761    19761.017    782.18455    9.2137497    9.2137497    9.2137497    49.635447 
   17400    305.23439   -10453.553            0   -9544.6176    19397.569    781.62694    9.2115598    9.2115598    9.2115598    46.094077 
   17500    310.25257   -10461.795            0   -9537.9153    13964.849    781.77734    9.2121505    9.2121505    9.2121505    43.983525 
   17600    306.28171   -10444.528            0   -9532.4731    19476.377    782.69668    9.2157601    9.2157601    9.2157601    41.098084 
   17700    310.43682   -10451.762            0   -9527.3338     2424.754    784.16828    9.2215323    9.2215323    9.2215323    57.784834 
   17800    315.03452   -10463.981            0   -9525.8624    12217.656    786.19831    9.2294829    9.2294829    9.2294829    58.414886 
   17900    299.36116   -10416.944            0    -9525.498    12792.978    788.67065    9.2391474    9.2391474    9.2391474    47.440225 
   18000    317.24052   -10473.675            0   -9528.9865    4027.9033    790.75602    9.2472834    9.2472834    9.2472834    58.213533 
Loop time of 20.3457 on 16 procs for 1000 steps with 1000 atoms

Performance: 4.247 ns/day, 5.652 hours/ns, 49.150 timesteps/s
94.5% CPU use with 16 MPI tasks x no OpenMP threads

MPI task timing breakdown:
Section |  min time  |  avg time  |  max time  |%varavg| %total
---------------------------------------------------------------
Pair    | 1.521      | 1.6791     | 1.7654     |   5.2 |  8.25
Neigh   | 0.62916    | 0.67392    | 0.70998    |   2.5 |  3.31
Comm    | 0.82076    | 0.94275    | 1.1457     |   8.8 |  4.63
Output  | 10.793     | 11.185     | 17.01      |  45.0 | 54.97
Modify  | 0.031117   | 5.8565     | 6.2487     |  62.2 | 28.78
Other   |            | 0.008626   |            |       |  0.04

Nlocal:    62.5 ave 68 max 55 min
Histogram: 1 0 1 2 3 3 1 0 2 3
Nghost:    1844.31 ave 1860 max 1827 min
Histogram: 3 1 0 1 3 2 0 1 2 3
Neighs:    0 ave 0 max 0 min
Histogram: 16 0 0 0 0 0 0 0 0 0
FullNghs:  18680.4 ave 20506 max 16421 min
Histogram: 1 0 1 3 3 2 0 1 4 1

Total # of neighbors = 298886
Ave neighs/atom = 298.886
Neighbor list builds = 1000
Dangerous builds not checked
Setting up Verlet run ...
  Unit style    : real
  Current step  : 18000
  Time step     : 1
Per MPI rank memory allocation (min/avg/max) = 4.578 | 4.579 | 4.579 Mbytes
Step Temp E_pair E_mol TotEng Press Volume Lx Ly Lz S/CPU 
   18000    317.24052   -10473.675            0   -9528.9865    4027.9033    790.75602    9.2472834    9.2472834    9.2472834            0 
   18100    311.17769   -10463.451            0   -9536.8166   -7904.6872    792.29297    9.2532707    9.2532707    9.2532707    42.192941 
   18200    299.59621   -10442.673            0    -9550.527   -11542.603    793.38658    9.2575262    9.2575262    9.2575262    41.547053 
   18300    287.25255   -10420.888            0   -9565.4991   -5838.3807    794.20858    9.2607222    9.2607222    9.2607222    46.089537 
   18400    298.92932   -10471.207            0    -9581.047   -13075.974    794.66401    9.2624921    9.2624921    9.2624921    57.352398 
   18500      296.068   -10475.123            0    -9593.483   -12379.649     794.1906    9.2606524    9.2606524    9.2606524    60.234905 
   18600    304.17342   -10510.259            0   -9604.4829    -12062.52    792.50498     9.254096     9.254096     9.254096    45.660732 
   18700    303.44458   -10515.357            0   -9611.7505   -931.83923    789.96831    9.2442119    9.2442119    9.2442119    59.924838 
   18800    303.55641   -10522.254            0   -9618.3146   -3734.4916    786.79163     9.231804     9.231804     9.231804     52.51868 
   18900    293.25709   -10494.341            0    -9621.071    7037.5414     783.2324    9.2178623    9.2178623    9.2178623    43.063259 
   19000     295.6169   -10505.475            0   -9625.1782    9376.2286    780.01973    9.2052417    9.2052417    9.2052417    47.709034 
Loop time of 20.5316 on 16 procs for 1000 steps with 1000 atoms

Performance: 4.208 ns/day, 5.703 hours/ns, 48.705 timesteps/s
94.5% CPU use with 16 MPI tasks x no OpenMP threads

MPI task timing breakdown:
Section |  min time  |  avg time  |  max time  |%varavg| %total
---------------------------------------------------------------
Pair    | 1.4882     | 1.6376     | 1.7647     |   6.3 |  7.98
Neigh   | 0.62859    | 0.66373    | 0.71052    |   2.8 |  3.23
Comm    | 0.78636    | 0.9611     | 1.1444     |  10.2 |  4.68
Output  | 11.358     | 11.728     | 17.227     |  41.5 | 57.12
Modify  | 0.034698   | 5.5322     | 5.9023     |  60.3 | 26.95
Other   |            | 0.008548   |            |       |  0.04

Nlocal:    62.5 ave 67 max 55 min
Histogram: 1 0 0 2 1 2 3 3 1 3
Nghost:    1854 ave 1874 max 1842 min
Histogram: 2 4 2 2 2 0 2 0 1 1
Neighs:    0 ave 0 max 0 min
Histogram: 16 0 0 0 0 0 0 0 0 0
FullNghs:  18943.8 ave 20201 max 16483 min
Histogram: 1 0 0 2 1 2 2 1 3 4

Total # of neighbors = 303100
Ave neighs/atom = 303.1
Neighbor list builds = 1000
Dangerous builds not checked
Setting up Verlet run ...
  Unit style    : real
  Current step  : 19000
  Time step     : 1
Per MPI rank memory allocation (min/avg/max) = 4.578 | 4.579 | 4.579 Mbytes
Step Temp E_pair E_mol TotEng Press Volume Lx Ly Lz S/CPU 
   19000     295.6169   -10505.475            0   -9625.1782    9376.2286    780.01973    9.2052417    9.2052417    9.2052417            0 
   19100    299.41731    -10520.03            0   -9628.4163    13088.557    777.31752    9.1945995    9.1945995    9.1945995    50.980375 
   19200    300.82957   -10526.969            0   -9631.1503    446.39384    775.33409    9.1867725    9.1867725    9.1867725    48.500766 
   19300    299.36525   -10523.955            0   -9632.4967    9791.7614    773.59558    9.1799009    9.1799009    9.1799009    49.382243 
   19400    286.27158   -10485.687            0   -9633.2187   -563.25254    772.37569    9.1750731    9.1750731    9.1750731    43.452192 
   19500    302.92377   -10537.567            0   -9635.5113     14468.92    771.44979    9.1714054    9.1714054    9.1714054    56.424193 
   19600    307.03566   -10551.792            0   -9637.4927    21762.814    771.28166     9.170739     9.170739     9.170739    47.277042 
   19700    287.05346   -10495.189            0   -9640.3923    25888.039    772.42399    9.1752643    9.1752643    9.1752643    52.935246 
   19800    297.34392   -10529.167            0   -9643.7279    7559.9877    774.85797    9.1848916    9.1848916    9.1848916    57.290489 
   19900    291.43127   -10514.229            0   -9646.3962    13097.605    777.84433    9.1966762    9.1966762    9.1966762    49.049146 
   20000    303.12738   -10550.435            0   -9647.7736   -6712.4685    780.89519    9.2086843    9.2086843    9.2086843    51.594541 
Loop time of 19.8488 on 16 procs for 1000 steps with 1000 atoms

Performance: 4.353 ns/day, 5.514 hours/ns, 50.381 timesteps/s
94.5% CPU use with 16 MPI tasks x no OpenMP threads

MPI task timing breakdown:
Section |  min time  |  avg time  |  max time  |%varavg| %total
---------------------------------------------------------------
Pair    | 1.6113     | 1.6998     | 1.8738     |   5.7 |  8.56
Neigh   | 0.64138    | 0.66836    | 0.71175    |   2.2 |  3.37
Comm    | 0.7759     | 0.97013    | 1.0845     |   9.1 |  4.89
Output  | 10.981     | 11.329     | 16.469     |  39.4 | 57.07
Modify  | 0.031137   | 5.1733     | 5.5207     |  58.4 | 26.06
Other   |            | 0.008744   |            |       |  0.04

Nlocal:    62.5 ave 68 max 56 min
Histogram: 1 0 0 5 1 3 2 0 3 1
Nghost:    1865.75 ave 1885 max 1848 min
Histogram: 1 4 1 2 0 1 2 2 2 1
Neighs:    0 ave 0 max 0 min
Histogram: 16 0 0 0 0 0 0 0 0 0
FullNghs:  18907.8 ave 20730 max 16804 min
Histogram: 1 0 1 4 1 3 2 1 2 1

Total # of neighbors = 302524
Ave neighs/atom = 302.524
Neighbor list builds = 1000
Dangerous builds not checked
Setting up Verlet run ...
  Unit style    : real
  Current step  : 20000
  Time step     : 1
Per MPI rank memory allocation (min/avg/max) = 4.578 | 4.579 | 4.579 Mbytes
Step Temp E_pair E_mol TotEng Press Volume Lx Ly Lz S/CPU 
   20000    303.12738   -10550.435            0   -9647.7736   -6712.4685    780.89519    9.2086843    9.2086843    9.2086843            0 
   20100    294.34904   -10522.766            0   -9646.2446   -5854.9951    783.36966    9.2184007    9.2184007    9.2184007    55.037043 
   20200    293.33868   -10518.207            0   -9644.6942   -1783.9655    784.84803     9.224196     9.224196     9.224196    54.222801 
   20300    287.71401   -10497.529            0   -9640.7662   -8395.4382    785.62495    9.2272387    9.2272387    9.2272387    66.615428 
   20400    292.30242   -10504.151            0   -9633.7239   -12535.395     785.4551    9.2265737    9.2265737    9.2265737    50.275209 
   20500     294.8845   -10501.391            0   -9623.2758    5573.7072    784.30246    9.2220582    9.2220582    9.2220582    76.245279 
   20600    288.73922   -10469.556            0   -9609.7398    -12113.51    782.75902    9.2160048    9.2160048    9.2160048    58.565226 
   20700    299.87465   -10491.652            0   -9598.6761     4262.227    781.09591    9.2094732    9.2094732    9.2094732    54.031479 
   20800    300.05232   -10480.803            0   -9587.2984   -5422.5992    779.51524    9.2032567    9.2032567    9.2032567    66.744191 
   20900    310.17379   -10502.788            0   -9579.1431    19196.654     778.0735    9.1975793    9.1975793    9.1975793    49.234366 
   21000    310.61446   -10496.949            0   -9571.9925    16005.296    777.26049    9.1943747    9.1943747    9.1943747    60.567926 
Loop time of 17.2017 on 16 procs for 1000 steps with 1000 atoms

Performance: 5.023 ns/day, 4.778 hours/ns, 58.134 timesteps/s
94.6% CPU use with 16 MPI tasks x no OpenMP threads

MPI task timing breakdown:
Section |  min time  |  avg time  |  max time  |%varavg| %total
---------------------------------------------------------------
Pair    | 1.5556     | 1.685      | 1.7753     |   5.1 |  9.80
Neigh   | 0.63569    | 0.67183    | 0.71016    |   2.4 |  3.91
Comm    | 0.82765    | 0.92802    | 1.0915     |   8.5 |  5.39
Output  | 9.3507     | 9.6368     | 13.87      |  35.2 | 56.02
Modify  | 0.03832    | 4.2714     | 4.5576     |  52.9 | 24.83
Other   |            | 0.008675   |            |       |  0.05

Nlocal:    62.5 ave 68 max 56 min
Histogram: 1 1 0 1 3 6 0 0 2 2
Nghost:    1866.62 ave 1891 max 1842 min
Histogram: 1 1 4 0 1 3 1 3 0 2
Neighs:    0 ave 0 max 0 min
Histogram: 16 0 0 0 0 0 0 0 0 0
FullNghs:  18975.2 ave 20623 max 16801 min
Histogram: 1 1 0 2 1 4 3 0 2 2

Total # of neighbors = 303604
Ave neighs/atom = 303.604
Neighbor list builds = 1000
Dangerous builds not checked
Setting up Verlet run ...
  Unit style    : real
  Current step  : 21000
  Time step     : 1
Per MPI rank memory allocation (min/avg/max) = 4.578 | 4.579 | 4.579 Mbytes
Step Temp E_pair E_mol TotEng Press Volume Lx Ly Lz S/CPU 
   21000    310.61446   -10496.949            0   -9571.9925    16005.296    777.26049    9.1943747    9.1943747    9.1943747            0 
   21100    311.88802   -10496.276            0   -9567.5268    7079.8782    777.26662    9.1943989    9.1943989    9.1943989    52.009035 
   21200    310.40983   -10491.093            0   -9566.7459    5647.7229    777.93287    9.1970252    9.1970252    9.1970252    41.390437 
   21300    299.36261   -10458.961            0   -9567.5107   -3269.2217    778.96835     9.201104     9.201104     9.201104    18.130159 
   21400    304.85478   -10478.185            0   -9570.3794    -19194.47    780.33257    9.2064722    9.2064722    9.2064722    38.570377 
   21500    308.37654   -10492.172            0   -9573.8797    3603.0294    781.45319    9.2108772    9.2108772    9.2108772     58.40748 
   21600    304.55676   -10485.128            0   -9578.2096   -650.61886    782.28696    9.2141518    9.2141518    9.2141518    32.632809 
   21700    300.11414   -10477.111            0   -9583.4227    19400.395    782.89943    9.2165559    9.2165559    9.2165559     48.97398 
   21800    297.06352   -10473.676            0   -9589.0712    10667.905    783.99275    9.2208441    9.2208441    9.2208441    44.486554 
   21900    290.92802    -10460.17            0   -9593.8358   -7441.1459    785.62395    9.2272348    9.2272348    9.2272348    42.889013 
   22000    296.23255   -10481.908            0   -9599.7778    13901.487    787.01505    9.2326778    9.2326778    9.2326778    53.848792 
Loop time of 25.7021 on 16 procs for 1000 steps with 1000 atoms

Performance: 3.362 ns/day, 7.139 hours/ns, 38.907 timesteps/s
94.3% CPU use with 16 MPI tasks x no OpenMP threads

MPI task timing breakdown:
Section |  min time  |  avg time  |  max time  |%varavg| %total
---------------------------------------------------------------
Pair    | 1.517      | 1.6442     | 1.7867     |   6.3 |  6.40
Neigh   | 0.61934    | 0.65731    | 0.6977     |   2.7 |  2.56
Comm    | 0.78638    | 0.96964    | 1.1344     |  10.3 |  3.77
Output  | 15.941     | 16.348     | 22.392     |  38.6 | 63.60
Modify  | 0.030159   | 6.0746     | 6.4816     |  63.3 | 23.63
Other   |            | 0.008591   |            |       |  0.03

Nlocal:    62.5 ave 67 max 57 min
Histogram: 1 0 2 1 2 2 1 3 2 2
Nghost:    1840 ave 1864 max 1814 min
Histogram: 1 0 1 1 6 2 0 2 1 2
Neighs:    0 ave 0 max 0 min
Histogram: 16 0 0 0 0 0 0 0 0 0
FullNghs:  18768.4 ave 20263 max 17098 min
Histogram: 1 1 1 2 3 0 4 2 0 2

Total # of neighbors = 300294
Ave neighs/atom = 300.294
Neighbor list builds = 1000
Dangerous builds not checked
Setting up Verlet run ...
  Unit style    : real
  Current step  : 22000
  Time step     : 1
Per MPI rank memory allocation (min/avg/max) = 4.578 | 4.579 | 4.579 Mbytes
Step Temp E_pair E_mol TotEng Press Volume Lx Ly Lz S/CPU 
   22000    296.23255   -10481.908            0   -9599.7778    13901.487    787.01505    9.2326778    9.2326778    9.2326778            0 
   22100    300.23462   -10498.793            0   -9604.7452   -11843.327     788.4067    9.2381165    9.2381165    9.2381165     47.07752 
   22200    297.14611   -10495.432            0    -9610.582   -2634.2896    789.76684    9.2434259    9.2434259    9.2434259    46.033923 
   22300    292.23116   -10488.132            0   -9617.9179   -9067.4122    790.97741    9.2481463    9.2481463    9.2481463    40.842491 
   22400    288.49678   -10484.338            0    -9625.244   -12268.767    791.31871    9.2494763    9.2494763    9.2494763    52.924556 
   22500    294.81067    -10512.13            0    -9634.234   -10731.699    790.84795    9.2476418    9.2476418    9.2476418     48.00473 
   22600    293.25982   -10519.412            0   -9646.1344    423.93314    789.42279    9.2420835    9.2420835    9.2420835    42.265209 
   22700    299.18618   -10548.892            0    -9657.967   -2187.2503    787.71773    9.2354247    9.2354247    9.2354247    39.830236 
   22800    290.75646   -10533.597            0   -9667.7738   -13458.163    785.84596    9.2281039    9.2281039    9.2281039    54.504221 
   22900    300.20341   -10572.156            0   -9678.2012   -11631.291    783.63049    9.2194237    9.2194237    9.2194237    42.193514 
   23000    293.40217   -10557.449            0   -9683.7475    8969.2037    781.04577    9.2092761    9.2092761    9.2092761    58.446409 
Loop time of 21.5099 on 16 procs for 1000 steps with 1000 atoms

Performance: 4.017 ns/day, 5.975 hours/ns, 46.490 timesteps/s
94.4% CPU use with 16 MPI tasks x no OpenMP threads

MPI task timing breakdown:
Section |  min time  |  avg time  |  max time  |%varavg| %total
---------------------------------------------------------------
Pair    | 1.4728     | 1.6502     | 1.8043     |   5.4 |  7.67
Neigh   | 0.64609    | 0.67015    | 0.73796    |   2.6 |  3.12
Comm    | 0.73005    | 0.95156    | 1.1527     |   8.9 |  4.42
Output  | 11.971     | 12.364     | 18.199     |  42.8 | 57.48
Modify  | 0.029856   | 5.8659     | 6.2592     |  62.2 | 27.27
Other   |            | 0.008597   |            |       |  0.04

Nlocal:    62.5 ave 69 max 58 min
Histogram: 3 2 1 2 2 2 2 1 0 1
Nghost:    1875.25 ave 1886 max 1864 min
Histogram: 2 0 2 0 1 6 3 0 0 2
Neighs:    0 ave 0 max 0 min
Histogram: 16 0 0 0 0 0 0 0 0 0
FullNghs:  18908.2 ave 21214 max 17564 min
Histogram: 3 2 1 3 3 2 1 0 0 1

Total # of neighbors = 302532
Ave neighs/atom = 302.532
Neighbor list builds = 1000
Dangerous builds not checked
Setting up Verlet run ...
  Unit style    : real
  Current step  : 23000
  Time step     : 1
Per MPI rank memory allocation (min/avg/max) = 4.578 | 4.579 | 4.579 Mbytes
Step Temp E_pair E_mol TotEng Press Volume Lx Ly Lz S/CPU 
   23000    293.40217   -10557.449            0   -9683.7475    8969.2037    781.04577    9.2092761    9.2092761    9.2092761            0 
   23100    291.47744   -10556.201            0    -9688.231    13116.152    778.68559    9.1999905    9.1999905    9.1999905    39.064812 
   23200    292.41721   -10559.894            0   -9689.1254    8295.2955    776.88539    9.1928954    9.1928954    9.1928954    53.164486 
   23300    298.07544   -10576.841            0    -9689.223    6196.3984    775.77876    9.1885284    9.1885284    9.1885284    59.258787 
   23400    294.14052   -10563.788            0   -9687.8873     30412.06    775.14362    9.1860201    9.1860201    9.1860201    45.459711 
   23500    290.91453   -10550.249            0   -9683.9557    22936.397    775.78992    9.1885724    9.1885724    9.1885724    43.348407 
   23600     301.2426   -10576.492            0   -9679.4428    15027.076    777.67428     9.196006     9.196006     9.196006     46.64549 
   23700    305.90115   -10583.177            0   -9672.2553    13766.917    780.69175    9.2078845    9.2078845    9.2078845    53.567761 
   23800    304.37322   -10565.687            0   -9659.3151   -9667.6098    783.86152    9.2203296    9.2203296    9.2203296    52.092443 
   23900    290.75642   -10507.583            0   -9641.7604   -3529.8215    786.52422     9.230758     9.230758     9.230758    58.146084 
   24000    306.01258   -10536.107            0   -9624.8538   -9405.5383    788.62358    9.2389635    9.2389635    9.2389635    52.645089 
Loop time of 20.1846 on 16 procs for 1000 steps with 1000 atoms

Performance: 4.280 ns/day, 5.607 hours/ns, 49.543 timesteps/s
94.5% CPU use with 16 MPI tasks x no OpenMP threads

MPI task timing breakdown:
Section |  min time  |  avg time  |  max time  |%varavg| %total
---------------------------------------------------------------
Pair    | 1.5479     | 1.6967     | 1.8857     |   6.0 |  8.41
Neigh   | 0.63089    | 0.67525    | 0.7288     |   2.8 |  3.35
Comm    | 0.72199    | 0.96411    | 1.1567     |  10.1 |  4.78
Output  | 11.595     | 11.925     | 16.805     |  36.5 | 59.08
Modify  | 0.033994   | 4.9152     | 5.2444     |  56.8 | 24.35
Other   |            | 0.00868    |            |       |  0.04

Nlocal:    62.5 ave 68 max 60 min
Histogram: 3 3 4 2 0 1 1 1 0 1
Nghost:    1846.12 ave 1867 max 1822 min
Histogram: 2 3 1 0 1 2 0 1 2 4
Neighs:    0 ave 0 max 0 min
Histogram: 16 0 0 0 0 0 0 0 0 0
FullNghs:  18708.2 ave 20424 max 17830 min
Histogram: 3 3 3 2 1 1 1 1 0 1

Total # of neighbors = 299332
Ave neighs/atom = 299.332
Neighbor list builds = 1000
Dangerous builds not checked
Setting up Verlet run ...
  Unit style    : real
  Current step  : 24000
  Time step     : 1
Per MPI rank memory allocation (min/avg/max) = 4.578 | 4.579 | 4.579 Mbytes
Step Temp E_pair E_mol TotEng Press Volume Lx Ly Lz S/CPU 
   24000    306.01258   -10536.107            0   -9624.8538   -9405.5383    788.62358    9.2389635    9.2389635    9.2389635            0 
   24100    291.72786   -10478.429            0    -9609.713   -15023.876    789.56555    9.2426405    9.2426405    9.2426405    55.700035 
   24200     303.8097   -10505.899            0    -9601.206    822.57352    789.28034    9.2415275    9.2415275    9.2415275    49.872209 
   24300    307.19869    -10510.47            0   -9595.6847   -12037.114    788.21404     9.237364     9.237364     9.237364    49.171668 
   24400    301.16391   -10489.242            0   -9592.4277   -9705.6091    786.45849    9.2305009    9.2305009    9.2305009    63.667704 
   24500    309.91398   -10513.073            0    -9590.202   -16250.479     784.1578    9.2214912    9.2214912    9.2214912    54.816961 
   24600    300.55807    -10482.36            0   -9587.3495   -3201.0569    781.23517    9.2100205    9.2100205    9.2100205    46.859919 
   24700    306.19878   -10498.432            0   -9586.6243    134.36023    778.22184    9.1981638    9.1981638    9.1981638    43.510024 
   24800    307.33284   -10502.316            0   -9587.1316    26614.527    775.66255    9.1880696    9.1880696    9.1880696    35.334949 
   24900    305.22551   -10500.145            0   -9591.2359    9019.3276    773.96343    9.1813557    9.1813557    9.1813557    54.151058 
   25000    308.32999   -10513.693            0   -9595.5385    20325.751    773.29474    9.1787108    9.1787108    9.1787108    36.613775 
Loop time of 21.0694 on 16 procs for 1000 steps with 1000 atoms

Performance: 4.101 ns/day, 5.853 hours/ns, 47.462 timesteps/s
94.4% CPU use with 16 MPI tasks x no OpenMP threads

MPI task timing breakdown:
Section |  min time  |  avg time  |  max time  |%varavg| %total
---------------------------------------------------------------
Pair    | 1.5708     | 1.6751     | 1.9052     |   6.2 |  7.95
Neigh   | 0.63262    | 0.67002    | 0.73121    |   2.7 |  3.18
Comm    | 0.65367    | 0.94421    | 1.0786     |  10.4 |  4.48
Output  | 12.129     | 12.483     | 17.74      |  38.4 | 59.25
Modify  | 0.030749   | 5.2881     | 5.6424     |  59.0 | 25.10
Other   |            | 0.008623   |            |       |  0.04

Nlocal:    62.5 ave 66 max 56 min
Histogram: 1 0 0 1 2 1 3 1 1 6
Nghost:    1861.81 ave 1883 max 1847 min
Histogram: 3 2 3 1 0 3 0 2 1 1
Neighs:    0 ave 0 max 0 min
Histogram: 16 0 0 0 0 0 0 0 0 0
FullNghs:  19076.6 ave 20356 max 17030 min
Histogram: 1 0 0 2 2 4 0 1 5 1

Total # of neighbors = 305226
Ave neighs/atom = 305.226
Neighbor list builds = 1000
Dangerous builds not checked
Setting up Verlet run ...
  Unit style    : real
  Current step  : 25000
  Time step     : 1
Per MPI rank memory allocation (min/avg/max) = 4.578 | 4.579 | 4.579 Mbytes
Step Temp E_pair E_mol TotEng Press Volume Lx Ly Lz S/CPU 
   25000    308.32999   -10513.693            0   -9595.5385    20325.751    773.29474    9.1787108    9.1787108    9.1787108            0 
   25100     317.5299   -10550.028            0   -9604.4785    19613.293    773.66857    9.1801896    9.1801896    9.1801896    52.730794 
   25200    303.68652   -10517.409            0   -9613.0821     16854.43     775.1264    9.1859521    9.1859521    9.1859521       38.847 
   25300    294.36879   -10498.543            0   -9621.9626    6465.6241    777.18747    9.1940867    9.1940867    9.1940867    55.394742 
   25400     300.5157   -10526.452            0   -9631.5678    9665.1357    779.47142    9.2030843    9.2030843    9.2030843    47.960116 
   25500     301.6419    -10537.06            0   -9638.8222    16262.111    781.89891     9.212628     9.212628     9.212628    57.614828 
   25600    296.21098   -10526.241            0   -9644.1755   -16167.005    784.58637    9.2231708    9.2231708    9.2231708    47.567857 
   25700    298.92203   -10539.547            0    -9649.408   -610.05641    786.88337    9.2321628    9.2321628    9.2321628    52.254237 
   25800    283.30198   -10494.043            0   -9650.4181    -9651.133    788.73794    9.2394101    9.2394101    9.2394101    55.901663 
   25900    295.03176   -10531.956            0   -9653.4014   -17098.491    789.87522    9.2438487    9.2438487    9.2438487    43.131012 
   26000    293.22787   -10525.009            0   -9651.8266   -34055.663    789.93188    9.2440697    9.2440697    9.2440697     43.38204 
Loop time of 20.5251 on 16 procs for 1000 steps with 1000 atoms

Performance: 4.209 ns/day, 5.701 hours/ns, 48.721 timesteps/s
94.5% CPU use with 16 MPI tasks x no OpenMP threads

MPI task timing breakdown:
Section |  min time  |  avg time  |  max time  |%varavg| %total
---------------------------------------------------------------
Pair    | 1.5891     | 1.6716     | 1.789      |   4.3 |  8.14
Neigh   | 0.63829    | 0.66735    | 0.70372    |   1.8 |  3.25
Comm    | 0.79337    | 0.94696    | 1.0578     |   7.0 |  4.61
Output  | 11.749     | 12.093     | 17.19      |  37.8 | 58.92
Modify  | 0.040249   | 5.1378     | 5.4818     |  58.1 | 25.03
Other   |            | 0.008649   |            |       |  0.04

Nlocal:    62.5 ave 67 max 59 min
Histogram: 2 2 2 3 0 2 1 1 2 1
Nghost:    1848.69 ave 1857 max 1834 min
Histogram: 1 0 0 1 2 4 3 0 0 5
Neighs:    0 ave 0 max 0 min
Histogram: 16 0 0 0 0 0 0 0 0 0
FullNghs:  18687.2 ave 20173 max 17638 min
Histogram: 4 0 3 2 1 2 1 1 1 1

Total # of neighbors = 298996
Ave neighs/atom = 298.996
Neighbor list builds = 1000
Dangerous builds not checked
Setting up Verlet run ...
  Unit style    : real
  Current step  : 26000
  Time step     : 1
Per MPI rank memory allocation (min/avg/max) = 4.578 | 4.579 | 4.579 Mbytes
Step Temp E_pair E_mol TotEng Press Volume Lx Ly Lz S/CPU 
   26000    293.22787   -10525.009            0   -9651.8266   -34055.663    789.93188    9.2440697    9.2440697    9.2440697            0 
   26100    283.25273   -10490.015            0   -9646.5363   -533.50271    788.37754    9.2380026    9.2380026    9.2380026    55.463069 
   26200    301.78336   -10539.284            0   -9640.6242   -14208.948    786.06894    9.2289766    9.2289766    9.2289766    55.815318 
   26300    298.04667   -10518.459            0   -9630.9266   -5687.5241    783.26329    9.2179835    9.2179835    9.2179835    49.843678 
   26400    305.29679    -10528.71            0   -9619.5881    10484.724    780.46313    9.2069856    9.2069856    9.2069856    62.318603 
   26500    299.67991   -10499.326            0   -9606.9305    26629.225    778.43999    9.1990232    9.1990232    9.1990232     46.09456 
   26600    304.29537   -10503.507            0   -9597.3674     7184.011    777.35766    9.1947578    9.1947578    9.1947578    54.575572 
   26700    303.47959   -10492.065            0    -9588.355    709.79768     777.0548    9.1935635    9.1935635    9.1935635     47.11792 
   26800    299.83578   -10475.263            0   -9582.4034   -7172.7484    777.39024    9.1948862    9.1948862    9.1948862     45.99743 
   26900    296.09856   -10461.089            0   -9579.3576    14672.352    778.20239    9.1980872    9.1980872    9.1980872    60.301307 
   27000    308.94588   -10499.211            0   -9579.2229    5849.4574    780.15013    9.2057546    9.2057546    9.2057546     40.89218 
Loop time of 19.6075 on 16 procs for 1000 steps with 1000 atoms

Performance: 4.406 ns/day, 5.447 hours/ns, 51.001 timesteps/s
94.5% CPU use with 16 MPI tasks x no OpenMP threads

MPI task timing breakdown:
Section |  min time  |  avg time  |  max time  |%varavg| %total
---------------------------------------------------------------
Pair    | 1.5604     | 1.6555     | 1.8565     |   5.1 |  8.44
Neigh   | 0.63466    | 0.65971    | 0.70942    |   1.8 |  3.36
Comm    | 0.70613    | 0.95796    | 1.0612     |   8.0 |  4.89
Output  | 11.012     | 11.344     | 16.267     |  37.7 | 57.86
Modify  | 0.059044   | 4.9817     | 5.314      |  56.9 | 25.41
Other   |            | 0.008595   |            |       |  0.04

Nlocal:    62.5 ave 69 max 58 min
Histogram: 3 3 1 1 3 1 1 0 1 2
Nghost:    1857.19 ave 1868 max 1840 min
Histogram: 1 0 2 1 1 1 4 1 2 3
Neighs:    0 ave 0 max 0 min
Histogram: 16 0 0 0 0 0 0 0 0 0
FullNghs:  18905.9 ave 20952 max 17434 min
Histogram: 2 3 2 1 2 2 1 0 2 1

Total # of neighbors = 302494
Ave neighs/atom = 302.494
Neighbor list builds = 1000
Dangerous builds not checked
Setting up Verlet run ...
  Unit style    : real
  Current step  : 27000
  Time step     : 1
Per MPI rank memory allocation (min/avg/max) = 4.578 | 4.579 | 4.579 Mbytes
Step Temp E_pair E_mol TotEng Press Volume Lx Ly Lz S/CPU 
   27000    308.94588   -10499.211            0   -9579.2229    5849.4574    780.15013    9.2057546    9.2057546    9.2057546            0 
   27100    305.85725   -10489.641            0   -9578.8505    3733.5626    782.52275    9.2150775    9.2150775    9.2150775     56.25315 
   27200    297.11355   -10462.671            0   -9577.9174    2326.8117    785.26685    9.2258365    9.2258365    9.2258365    43.061468 
   27300    305.08988   -10487.766            0   -9579.2604    8499.3718    788.29429    9.2376774    9.2376774    9.2376774    43.591122 
   27400    291.32139    -10446.91            0   -9579.4046    7264.0682    791.23322    9.2491432    9.2491432    9.2491432    42.337154 
   27500    295.60296   -10459.325            0     -9579.07   -21137.817    794.03137    9.2600334    9.2600334    9.2600334    55.812923 
   27600    296.54952   -10462.067            0   -9578.9934   -8568.9316    796.15802    9.2682931    9.2682931    9.2682931    49.615399 
   27700    295.11931   -10457.657            0   -9578.8417   -22722.503    797.31004    9.2727613    9.2727613    9.2727613    61.644884 
   27800    300.18176    -10472.82            0   -9578.9305   -7954.1766    796.79915    9.2707802    9.2707802    9.2707802    56.523966 
   27900    309.55924   -10502.245            0   -9580.4301    -15866.01    795.39563    9.2653337    9.2653337    9.2653337    50.027771 
   28000       301.77       -10479            0     -9580.38   -7531.0035    793.38886    9.2575351    9.2575351    9.2575351    46.131482 
Loop time of 20.1212 on 16 procs for 1000 steps with 1000 atoms

[...]
 1153700    284.95918   -11445.342            0   -10596.782    4514.5519    748.55845    9.0797782    9.0797782    9.0797782    70.421379 
 1153800    282.97129   -11434.776            0   -10592.136    10007.021    747.77624    9.0766144    9.0766144    9.0766144    72.966878 
 1153900    297.29065   -11475.529            0   -10590.248    10931.397    747.67023    9.0761855    9.0761855    9.0761855    50.036709 
 1154000    292.64101   -11455.299            0   -10583.864    10876.091    748.24584    9.0785141    9.0785141    9.0785141    65.829675 
 1154100      301.088   -11473.709            0   -10577.121    3940.0169    749.31399     9.082832     9.082832     9.082832    51.669416 
 1154200    297.72714   -11455.142            0   -10568.561   -768.82026    750.73655    9.0885762    9.0885762    9.0885762    75.439831 
 1154300    290.24666   -11422.899            0   -10558.594   -10522.749     751.9214    9.0933551    9.0933551    9.0933551    50.106419 
 1154400    292.20602   -11419.717            0   -10549.577   -11843.508     752.5681    9.0959612    9.0959612    9.0959612    64.646029 
 1154500    291.94069   -11409.256            0   -10539.906    -10888.48    752.53015    9.0958084    9.0958084    9.0958084     45.43406 
 1154600    317.23914   -11478.023            0   -10533.339   -2046.7435    751.83822    9.0930197    9.0930197    9.0930197    50.545498 
 1154700    300.62185    -11419.79            0    -10524.59    1048.8025    750.79218    9.0888007    9.0888007    9.0888007     56.37121 
 1154800    316.16072   -11462.469            0   -10520.997    2693.9905    749.71009    9.0844322    9.0844322    9.0844322    49.635861 
 1154900    308.30019   -11435.153            0   -10517.088    13347.127    748.91521    9.0812204    9.0812204    9.0812204    68.980571 
 1155000    305.97341   -11427.182            0   -10516.045    10892.599    748.63508     9.080088     9.080088     9.080088     53.35675 
 1155100    306.45255   -11428.487            0   -10515.924    9623.6297    748.84964    9.0809554    9.0809554    9.0809554    61.895374 
 1155200    308.25335   -11436.065            0   -10518.139    1608.0232    749.50275    9.0835946    9.0835946    9.0835946    66.217314 
 1155300    303.48064   -11426.511            0   -10522.797    22.780188    750.43216    9.0873477    9.0873477    9.0873477    48.647352 
 1155400    299.19674   -11421.048            0   -10530.091    1320.6192    751.56591    9.0919218    9.0919218    9.0919218    50.825964 
 1155500    305.82945   -11452.607            0   -10541.899   -6894.6015    752.39559    9.0952662    9.0952662    9.0952662    45.034419 
 1155600    303.93935   -11460.434            0   -10555.354   -7959.7073    752.74254     9.096664     9.096664     9.096664    56.579616 
 1155700    298.84882   -11460.543            0   -10570.622   -11914.512    752.47916    9.0956029    9.0956029    9.0956029    60.179555 
 1155800    297.29722   -11469.295            0   -10583.995   -5503.2075    751.46596    9.0915187    9.0915187    9.0915187    59.478041 
 1155900    296.39232   -11476.299            0   -10593.694   -1300.6415    750.02432    9.0857012    9.0857012    9.0857012    60.551567 
 1156000    290.40502   -11463.351            0   -10598.574    6866.4655    748.53091    9.0796668    9.0796668    9.0796668    50.500853 
 1156100     295.5587   -11480.936            0   -10600.812    17370.495    747.25371    9.0744998    9.0744998    9.0744998     61.79743 
 1156200    299.57632   -11494.099            0   -10602.012    13463.816     746.6238    9.0719492    9.0719492    9.0719492    53.751536 
 1156300    295.27068   -11480.666            0   -10601.401    20849.145    746.75973    9.0724997    9.0724997    9.0724997    53.184908 
 1156400    295.05513    -11478.86            0   -10600.236    5305.0571    747.64718    9.0760922    9.0760922    9.0760922    43.570896 
 1156500    292.03648   -11467.782            0   -10598.147    5364.7094    749.10752    9.0819977    9.0819977    9.0819977    67.909545 
 1156600    293.35004   -11468.271            0   -10594.725   -4652.5563    750.82111    9.0889174    9.0889174    9.0889174     47.65062 
 1156700    299.75151   -11483.895            0   -10591.286   -8340.7227    752.24546    9.0946612    9.0946612    9.0946612    62.302083 
 1156800    296.24003   -11468.128            0   -10585.976   -17173.961    753.08919    9.0980601    9.0980601    9.0980601     54.26655 
 1156900    283.51643   -11423.956            0   -10579.692   -16393.254    753.08766     9.098054     9.098054     9.098054    64.471027 
 1157000    289.93262   -11437.054            0   -10573.684   -13119.442    752.16917    9.0943537    9.0943537    9.0943537     59.75738 
 1157100    300.95119   -11463.779            0   -10567.598     -4987.74    750.60123    9.0880301    9.0880301    9.0880301    50.895955 
 1157200    298.92469    -11450.73            0   -10560.584    7814.5685    748.81531    9.0808166    9.0808166    9.0808166    65.471879 
 1157300    297.21396    -11438.64            0   -10553.588    10136.694    747.27929    9.0746033    9.0746033    9.0746033    63.856151 
 1157400    305.60251   -11459.063            0   -10549.031    9906.0155    746.56162    9.0716974    9.0716974    9.0716974    52.273288 
 1157500    301.76865   -11442.798            0   -10544.182     21686.61    746.80641    9.0726888    9.0726888    9.0726888    66.409764 
 1157600    299.41975   -11431.797            0   -10540.176     8299.815    748.10788    9.0779561    9.0779561    9.0779561    50.304607 
 1157700    295.74805   -11417.253            0   -10536.565   -3615.9398    750.16378    9.0862643    9.0862643    9.0862643    54.910251 
 1157800    309.62498   -11457.015            0   -10535.005   -10907.258    752.32386    9.0949771    9.0949771    9.0949771    64.003635 
 1157900    299.26986   -11423.688            0   -10532.514   -18133.803    754.01645    9.1017927    9.1017927    9.1017927    57.521887 
 1158000    293.32483   -11402.499            0   -10529.028   -19973.184    754.80165     9.104951     9.104951     9.104951    50.769322 
 1158100    300.73244   -11422.487            0   -10526.957   -10352.435    754.36239    9.1031845    9.1031845    9.1031845    58.034051 
 1158200    300.83439   -11420.096            0   -10524.262   -10800.024    752.87966    9.0972163    9.0972163    9.0972163    63.265472 
 1158300    305.19219   -11429.708            0   -10520.898   -2269.3153    750.64442    9.0882044    9.0882044    9.0882044    51.604153 
 1158400    306.04236   -11429.819            0   -10518.477    13042.465    748.26811    9.0786041    9.0786041    9.0786041    53.126639 
 1158500    304.53616   -11422.418            0   -10515.561    20000.343    746.47207    9.0713346    9.0713346    9.0713346    44.222335 
 1158600    302.03694   -11415.514            0     -10516.1    25963.253    745.76479    9.0684687    9.0684687    9.0684687    63.628331 
 1158700    309.39865   -11441.008            0   -10519.672    19847.814    746.49681    9.0714348    9.0714348    9.0714348     58.39774 
 1158800    312.73099   -11458.571            0   -10527.311    13532.437    748.51586     9.079606     9.079606     9.079606    63.467367 
 1158900    308.94353   -11454.856            0   -10534.875   -3947.6427    751.28319    9.0907816    9.0907816    9.0907816    62.029713 
 1159000    299.24063   -11434.225            0   -10543.137   -10874.104    753.92833    9.1014381    9.1014381    9.1014381    38.572283 
 1159100    289.75206    -11416.02            0   -10553.188   -19885.408    755.75495    9.1087825    9.1087825    9.1087825     66.15835 
 1159200    292.74905   -11433.426            0    -10561.67   -21089.301    756.13291    9.1103007    9.1103007    9.1103007    48.557903 
 1159300    289.66048    -11434.15            0    -10571.59   -22105.068    754.85574    9.1051685    9.1051685    9.1051685    72.945305 
 1159400     304.0802   -11485.411            0   -10579.912   -10531.928    751.97987    9.0935907    9.0935907    9.0935907    43.528107 
 1159500    301.90423   -11484.751            0   -10585.731    8528.7354     748.1952    9.0783093    9.0783093    9.0783093    55.775483 
 1159600    294.79183   -11467.866            0   -10590.026    23015.202    744.56257    9.0635931    9.0635931    9.0635931    63.666071 
 1159700    296.09179   -11475.516            0   -10593.805     37233.89    742.26377    9.0542557    9.0542557    9.0542557    65.697874 
 1159800    293.73574   -11474.234            0   -10599.539    30016.523     742.0629    9.0534389    9.0534389    9.0534389    50.065672 
 1159900    293.94547   -11479.108            0   -10603.788    25048.792    744.07499    9.0616142    9.0616142    9.0616142    66.228251 
 1160000    297.93282   -11495.498            0   -10608.305    188.56648    747.86505    9.0769737    9.0769737    9.0769737     44.14948 
 1160100    296.26795   -11492.324            0   -10610.088   -18436.226    752.35653    9.0951088    9.0951088    9.0951088     57.48438 
 1160200    297.08391   -11494.447            0   -10609.782    -27353.41    756.18996    9.1105299    9.1105299    9.1105299    52.788181 
 1160300    278.43302   -11434.833            0   -10605.707   -33737.284    758.33882    9.1191515    9.1191515    9.1191515    65.741031 
 1160400    291.38237   -11470.282            0   -10602.595   -39513.599    758.08582    9.1181372    9.1181372    9.1181372    49.256285 
 1160500    289.41495   -11457.918            0    -10596.09   -33100.415    755.33196    9.1070828    9.1070828    9.1070828    67.212506 
 1160600    289.62807   -11447.865            0   -10585.402   -7198.3272    750.65329    9.0882402    9.0882402    9.0882402    57.240424 
 1160700    308.33616   -11488.975            0   -10570.803    27056.653    745.48685     9.067342     9.067342     9.067342    64.043582 
 1160800    297.96467   -11440.411            0   -10553.123    40356.215    741.49524    9.0511297    9.0511297    9.0511297    51.357566 
 1160900    306.92453   -11452.152            0   -10538.183    47990.625    739.86563    9.0444942    9.0444942    9.0444942    61.331473 
 1161000    294.25924   -11407.369            0   -10531.116    40195.636    741.11849    9.0495965    9.0495965    9.0495965    47.697351 
 1161100    304.60365   -11436.253            0   -10529.196    22608.035      744.961    9.0652095    9.0652095    9.0652095     63.54639 
 1161200    298.78469   -11417.472            0   -10527.742    -8911.076    750.39159    9.0871839    9.0871839    9.0871839     48.84693 
 1161300    302.69252   -11428.294            0   -10526.928   -18277.355    755.83537    9.1091056    9.1091056    9.1091056    54.352923 
 1161400    305.32723   -11436.783            0    -10527.57   -30742.366     759.9302    9.1255259    9.1255259    9.1255259      61.8871 
 1161500    310.67187   -11453.567            0    -10528.44   -45774.898    761.43908    9.1315616    9.1315616    9.1315616    68.931287 
 1161600    298.97574   -11419.552            0   -10529.253   -38704.171    759.97485    9.1257046    9.1257046    9.1257046    43.175042 
 1161700    298.62586   -11421.888            0   -10532.631   -19252.574    756.01812    9.1098397    9.1098397    9.1098397    59.513537 
 1161800    304.13548   -11442.167            0   -10536.504   -2741.4856    750.72374    9.0885245    9.0885245    9.0885245    51.779543 
 1161900    308.29408   -11457.258            0   -10539.211    12943.754    745.62906    9.0679185    9.0679185    9.0679185    70.851286 
 1162000    301.22039   -11438.627            0   -10541.644    40049.795    742.15821    9.0538264    9.0538264    9.0538264    59.135213 
 1162100    304.23316   -11453.709            0   -10547.754    42345.272    741.15461    9.0497435    9.0497435    9.0497435    70.318785 
 1162200    300.79575   -11452.428            0    -10556.71    34299.224    742.75542    9.0562543    9.0562543    9.0562543    42.610395 
 1162300    307.04196   -11480.456            0   -10566.137     14528.16    746.34395    9.0708156    9.0708156    9.0708156     51.69359 
 1162400     300.0928   -11469.368            0   -10575.743   -2481.6578    750.65862    9.0882617    9.0882617    9.0882617    49.681965 
 1162500     286.6866   -11437.051            0   -10583.347   -20587.192    754.34514    9.1031151    9.1031151    9.1031151    47.229253 
 1162600    296.34601   -11472.108            0    -10589.64   -30549.754    756.23804    9.1107229    9.1107229    9.1107229     48.04293 
 1162700    284.49549   -11440.436            0   -10593.257   -26572.258    756.13468    9.1103078    9.1103078    9.1103078    56.213097 
 1162800    305.41307    -11507.34            0   -10597.872    -28610.13    754.33273    9.1030652    9.1030652    9.1030652    66.896193 
 1162900    286.45179   -11452.444            0   -10599.439   -6230.6201    751.50593    9.0916799    9.0916799    9.0916799     56.08037 
 1163000    301.30414   -11498.397            0   -10601.165     6265.996     748.5789    9.0798609    9.0798609    9.0798609    60.677222 
 1163100     301.2172   -11497.141            0   -10600.168     19933.25    746.41357    9.0710976    9.0710976    9.0710976    47.890363 
 1163200    298.50021   -11486.877            0   -10597.995    15306.064    745.51234    9.0674453    9.0674453    9.0674453    71.903517 
 1163300    298.32286   -11484.749            0   -10596.395    19643.118    745.81902    9.0686885    9.0686885    9.0686885    57.429473 
 1163400     288.0617   -11451.702            0   -10593.903      9882.73    747.11904    9.0739546    9.0739546    9.0739546    56.759449 
 1163500    300.92993   -11491.303            0   -10595.185   -1229.1145    748.91957    9.0812381    9.0812381    9.0812381    56.240594 
 1163600    288.72252   -11451.766            0       -10592   -11008.191    750.68961    9.0883868    9.0883868    9.0883868     66.79347 
 1163700    295.02703   -11468.003            0   -10589.463   -8010.9293    751.93791    9.0934216    9.0934216    9.0934216    67.046284 
 1163800    296.18449   -11469.276            0   -10587.289   -12885.072    752.49573    9.0956697    9.0956697    9.0956697    48.747109 
 1163900     292.1162    -11454.93            0   -10585.058   -15055.435    752.28421    9.0948174    9.0948174    9.0948174    62.707814 
 1164000    284.69266   -11428.334            0   -10580.568   -5405.4114    751.30071    9.0908523    9.0908523    9.0908523     47.25563 
 1164100    306.81464   -11492.207            0   -10578.566    5733.9235    749.86129    9.0850428    9.0850428    9.0850428    54.531235 
 1164200    307.87036   -11490.367            0   -10573.581    3736.2421    748.52974    9.0796621    9.0796621    9.0796621    49.825409 
 1164300    294.72921   -11445.963            0    -10568.31    15391.347    747.64935     9.076101     9.076101     9.076101    56.245319 
 1164400    303.79393   -11468.907            0   -10564.261    8148.9506    747.65696    9.0761318    9.0761318    9.0761318    56.719225 
 1164500    299.50403   -11450.916            0   -10559.044    8749.2008    748.34707    9.0789234    9.0789234    9.0789234    54.190716 
 1164600    306.35537   -11467.265            0   -10554.991    574.32295    749.48088    9.0835063    9.0835063    9.0835063    57.348177 
 1164700     303.3135   -11454.036            0    -10550.82   -1538.6647     750.8252    9.0889339    9.0889339    9.0889339    67.339644 
 1164800    303.14408   -11448.131            0   -10545.419     2626.545    751.89778    9.0932598    9.0932598    9.0932598    51.727332 
 1164900    306.06569   -11452.676            0   -10541.264    -13071.69     752.4308    9.0954081    9.0954081    9.0954081    47.127462 
 1165000    305.60461   -11447.545            0   -10537.506   -7645.1036    752.34765     9.095073     9.095073     9.095073    65.216112 
 1165100    307.88277   -11449.478            0   -10532.656    2941.0913    751.80199    9.0928737    9.0928737    9.0928737    51.803352 
 1165200    311.53929   -11456.073            0   -10528.362   -5829.4185    751.10744    9.0900727    9.0900727    9.0900727    60.133956 
 1165300    298.31643     -11410.6            0   -10522.265    8275.4253    750.26037    9.0866542    9.0866542    9.0866542    73.004937 
 1165400     297.9911   -11404.787            0   -10517.421    8047.1765    749.54084    9.0837485    9.0837485    9.0837485    57.147293 
 1165500    313.25426   -11446.922            0   -10514.104    2821.5612    749.20105    9.0823756    9.0823756    9.0823756    67.081033 
 1165600    317.44238   -11454.388            0   -10509.099    3027.4026    749.28781    9.0827262    9.0827262    9.0827262    53.242936 
 1165700    298.59127   -11393.082            0   -10503.928   -2069.0147    749.80379    9.0848106    9.0848106    9.0848106     65.19055 
 1165800    315.08818    -11439.93            0   -10501.651   -159.03776    750.59998    9.0880251    9.0880251    9.0880251    50.636346 
 1165900    314.00371    -11436.37            0   -10501.321       678.93    751.48455    9.0915937    9.0915937    9.0915937    64.906715 
 1166000    310.21128   -11426.003            0   -10502.247    3020.7674    752.20419    9.0944949    9.0944949    9.0944949    50.525025 
 1166100    306.06506   -11417.894            0   -10506.484   -8972.3589    752.64545    9.0962729    9.0962729    9.0962729    61.246529 
 1166200    307.82498   -11430.798            0   -10514.148   -10537.321    752.86354    9.0971514    9.0971514    9.0971514    50.615494 
 1166300    296.20735   -11404.804            0   -10522.749    2153.3637    752.68177    9.0964192    9.0964192    9.0964192    71.381577 
 1166400     298.6594   -11425.338            0   -10535.982   -3067.4513    752.07016    9.0939547    9.0939547    9.0939547    54.713229 
 1166500    298.48062   -11437.745            0   -10548.921   -7737.9656     751.1242    9.0901403    9.0901403    9.0901403    50.738986 
 1166600    290.19303   -11423.357            0   -10559.212    7229.1396    749.87922    9.0851152    9.0851152    9.0851152    62.114079 
 1166700    307.74504   -11487.477            0   -10571.064    1431.6743    748.72863    9.0804662    9.0804662    9.0804662    49.281539 
 1166800    303.41996   -11482.308            0   -10578.775    6058.5916    747.97858     9.077433     9.077433     9.077433    38.751187 
 1166900    294.06689   -11459.473            0   -10583.792     8294.202    747.75083    9.0765116    9.0765116    9.0765116    62.572283 
 1167000    290.26427   -11452.884            0   -10588.527    8422.6379    748.15015     9.078127     9.078127     9.078127    46.140374 
Loop time of 1749.49 on 16 procs for 100000 steps with 1000 atoms

Performance: 4.939 ns/day, 4.860 hours/ns, 57.159 timesteps/s
94.5% CPU use with 16 MPI tasks x no OpenMP threads

MPI task timing breakdown:
Section |  min time  |  avg time  |  max time  |%varavg| %total
---------------------------------------------------------------
Pair    | 157.88     | 161.86     | 173.22     |  32.7 |  9.25
Neigh   | 66.858     | 68.541     | 72.511     |  17.2 |  3.92
Comm    | 73.49      | 88.793     | 94.336     |  56.5 |  5.08
Output  | 960.24     | 989.73     | 1426       | 358.0 | 56.57
Modify  | 3.3872     | 439.69     | 469.19     | 537.2 | 25.13
Other   |            | 0.8788     |            |       |  0.05

Nlocal:    62.5 ave 69 max 57 min
Histogram: 3 0 1 2 1 5 1 1 1 1
Nghost:    1925.88 ave 1938 max 1911 min
Histogram: 2 1 1 0 1 3 1 4 2 1
Neighs:    0 ave 0 max 0 min
Histogram: 16 0 0 0 0 0 0 0 0 0
FullNghs:  19690.2 ave 21815 max 17942 min
Histogram: 3 0 1 3 2 3 1 1 1 1

Total # of neighbors = 315044
Ave neighs/atom = 315.044
Neighbor list builds = 100000
Dangerous builds not checked
Total wall time: 5:50:43
