LAMMPS (16 Mar 2018)
Reading data file ...
  orthogonal box = (-4.72839 -4.72839 -4.72839) to (4.72839 4.72839 4.72839)
  2 by 2 by 4 MPI processor grid
  reading atoms ...
  1000 atoms
Reading potential file /home/fs01/ajm529/lammps-16Mar18/potentials/sw_potentials/AG/eps2.23.sw with DATE: 2008-01-29
Neighbor list info ...
  update every 1 steps, delay 0 steps, check no
  max neighbors/atom: 2000, page size: 100000
  master list distance cutoff = 3.836
  ghost atom cutoff = 3.836
  binsize = 1.918, bins = 5 5 5
  1 neighbor lists, perpetual/occasional/extra = 1 0 0
  (1) pair sw, perpetual
      attributes: full, newton on
      pair build: full/bin/atomonly
      stencil: full/bin/3d
      bin: standard
Setting up Verlet run ...
  Unit style    : real
  Current step  : 0
  Time step     : 1
Per MPI rank memory allocation (min/avg/max) = 3.517 | 3.519 | 3.52 Mbytes
Step Temp E_pair E_mol TotEng Press Volume Lx Ly Lz S/CPU 
       0          300    -9997.403            0   -9104.0542   -32820.327     845.7263    9.4567798    9.4567798    9.4567798            0 
     100    348.73504   -10150.853            0   -9112.3797   -45216.983    843.91102    9.4500089    9.4500089    9.4500089    42.209849 
     200    339.72555   -10142.705            0   -9131.0607   -30753.168    838.57528    9.4300505    9.4300505    9.4300505    35.788499 
     300    334.35458   -10154.024            0   -9158.3733   -39230.964    830.33896    9.3990755    9.3990755    9.3990755    41.307574 
     400    340.68158    -10199.31            0   -9184.8187   -23738.631    820.36949    9.3613073    9.3613073    9.3613073    44.622909 
     500    334.13077   -10202.301            0   -9207.3171     -5918.89    809.91093    9.3213558    9.3213558    9.3213558    40.984153 
     600    340.00579    -10241.06            0   -9228.5803    16034.975    800.40049    9.2847265    9.2847265    9.2847265    43.376998 
     700    337.45657   -10255.621            0   -9250.7334    18721.668    792.84551    9.2554213    9.2554213    9.2554213    41.967149 
     800    336.68085   -10277.716            0   -9275.1378    22865.984    787.44208    9.2343473    9.2343473    9.2343473    41.915344 
     900    334.54839   -10297.158            0   -9300.9296    22485.288    784.46828    9.2227081    9.2227081    9.2227081    45.165999 
    1000    334.67237   -10324.075            0   -9327.4778    25859.024    783.76509    9.2199515    9.2199515    9.2199515     37.69641 
Loop time of 24.2059 on 16 procs for 1000 steps with 1000 atoms

Performance: 3.569 ns/day, 6.724 hours/ns, 41.312 timesteps/s
94.5% CPU use with 16 MPI tasks x no OpenMP threads

MPI task timing breakdown:
Section |  min time  |  avg time  |  max time  |%varavg| %total
---------------------------------------------------------------
Pair    | 2.1341     | 2.4211     | 2.6973     |  11.0 | 10.00
Neigh   | 0.75628    | 0.83775    | 0.91326    |   5.6 |  3.46
Comm    | 0.53778    | 0.89151    | 1.2598     |  23.6 |  3.68
Output  | 13.444     | 13.857     | 19.894     |  41.9 | 57.24
Modify  | 0.16504    | 6.1905     | 6.6047     |  62.5 | 25.57
Other   |            | 0.008427   |            |       |  0.03

Nlocal:    62.5 ave 68 max 57 min
Histogram: 2 0 3 2 3 0 2 0 1 3
Nghost:    1861.81 ave 1871 max 1849 min
Histogram: 1 0 2 1 1 4 1 1 3 2
Neighs:    0 ave 0 max 0 min
Histogram: 16 0 0 0 0 0 0 0 0 0
FullNghs:  18828.2 ave 20460 max 17116 min
Histogram: 2 0 2 2 4 0 2 0 1 3

Total # of neighbors = 301252
Ave neighs/atom = 301.252
Neighbor list builds = 1000
Dangerous builds not checked
Setting up Verlet run ...
  Unit style    : real
  Current step  : 1000
  Time step     : 1
Per MPI rank memory allocation (min/avg/max) = 3.769 | 4.426 | 4.579 Mbytes
Step Temp E_pair E_mol TotEng Press Volume Lx Ly Lz S/CPU 
    1000    334.67237   -10324.075            0   -9327.4778    25859.024    783.76509    9.2199515    9.2199515    9.2199515            0 
    1100    337.20969   -10357.248            0   -9353.0952    13636.246    784.39851    9.2224347    9.2224347    9.2224347    43.598199 
    1200     323.8844   -10342.658            0   -9378.1855    18251.406    786.14363    9.2292689    9.2292689    9.2292689     42.41187 
    1300    314.80448    -10340.39            0    -9402.956    3017.0414    788.84266     9.239819     9.239819     9.239819    44.476487 
    1400    313.65957   -10361.202            0    -9427.177    -25406.34    791.67704    9.2508723    9.2508723    9.2508723    48.614625 
    1500    321.33533   -10405.721            0   -9448.8389   -20306.582    793.28508    9.2571314    9.2571314    9.2571314    42.003625 
    1600    314.59527   -10406.425            0   -9469.6137   -14363.082    793.68151    9.2586732    9.2586732    9.2586732    35.375038 
    1700    308.33757   -10408.062            0    -9489.885   -13758.815     793.2147    9.2568576    9.2568576    9.2568576    55.340025 
    1800     302.2331   -10407.762            0   -9507.7631    828.99772     792.4617    9.2539275    9.2539275    9.2539275     39.68242 
    1900    308.92615   -10445.594            0    -9525.665     1081.874    791.76305    9.2512073    9.2512073    9.2512073    42.580492 
    2000      298.733   -10429.915            0   -9540.3395   -3267.2414    791.02278    9.2483231    9.2483231    9.2483231    37.741508 
Loop time of 23.4896 on 16 procs for 1000 steps with 1000 atoms

Performance: 3.678 ns/day, 6.525 hours/ns, 42.572 timesteps/s
94.6% CPU use with 16 MPI tasks x no OpenMP threads

MPI task timing breakdown:
Section |  min time  |  avg time  |  max time  |%varavg| %total
---------------------------------------------------------------
Pair    | 2.3885     | 2.5889     | 2.7888     |   7.6 | 11.02
Neigh   | 0.79232    | 0.85538    | 0.91607    |   4.4 |  3.64
Comm    | 0.71691    | 0.97129    | 1.2372     |  16.3 |  4.13
Output  | 12.876     | 13.253     | 18.856     |  39.7 | 56.42
Modify  | 0.21792    | 5.8126     | 6.1976     |  59.9 | 24.75
Other   |            | 0.0085     |            |       |  0.04

Nlocal:    62.5 ave 71 max 58 min
Histogram: 4 1 3 0 5 0 2 0 0 1
Nghost:    1837.19 ave 1855 max 1820 min
Histogram: 1 0 2 2 5 1 2 1 1 1
Neighs:    0 ave 0 max 0 min
Histogram: 16 0 0 0 0 0 0 0 0 0
FullNghs:  18657.2 ave 21331 max 17237 min
Histogram: 3 2 3 0 5 1 1 0 0 1

Total # of neighbors = 298516
Ave neighs/atom = 298.516
Neighbor list builds = 1000
Dangerous builds not checked
Setting up Verlet run ...
  Unit style    : real
  Current step  : 2000
  Time step     : 1
Per MPI rank memory allocation (min/avg/max) = 3.769 | 4.528 | 4.579 Mbytes
Step Temp E_pair E_mol TotEng Press Volume Lx Ly Lz S/CPU 
    2000      298.733   -10429.915            0   -9540.3395   -3267.2414    791.02278    9.2483231    9.2483231    9.2483231            0 
    2100    296.37237   -10437.256            0     -9554.71    5191.5696    790.00314    9.2443477    9.2443477    9.2443477     43.64739 
    2200    302.77967   -10470.066            0   -9568.4396   -1275.8188     789.1863    9.2411605    9.2411605    9.2411605    34.476523 
    2300    292.09617   -10449.802            0   -9579.9893   -3481.5432    788.48363     9.238417     9.238417     9.238417    45.338896 
    2400     304.4009   -10497.561            0   -9591.1073   -1602.7863    787.69928    9.2353526    9.2353526    9.2353526    38.898794 
    2500     306.5165       -10513            0   -9600.2466   -3987.3144     786.6011    9.2310588    9.2310588    9.2310588    39.294142 
    2600    297.52008   -10494.348            0   -9608.3843   -242.57765    785.53104     9.226871     9.226871     9.226871    36.345915 
    2700    302.34983   -10518.152            0   -9617.8061    3762.8227    784.50946    9.2228694    9.2228694    9.2228694    39.717958 
    2800    296.00594    -10507.04            0   -9625.5853    6080.7116    783.52742    9.2190195    9.2190195    9.2190195    39.177128 
    2900    298.51532   -10521.363            0    -9632.435    14930.761    783.08857     9.217298     9.217298     9.217298    37.795202 
    3000    295.70777   -10519.802            0   -9639.2344    15478.221    783.10971    9.2173809    9.2173809    9.2173809     44.82866 
Loop time of 25.2111 on 16 procs for 1000 steps with 1000 atoms

Performance: 3.427 ns/day, 7.003 hours/ns, 39.665 timesteps/s
94.5% CPU use with 16 MPI tasks x no OpenMP threads

MPI task timing breakdown:
Section |  min time  |  avg time  |  max time  |%varavg| %total
---------------------------------------------------------------
Pair    | 2.385      | 2.6219     | 2.9386     |   9.2 | 10.40
Neigh   | 0.80032    | 0.86222    | 0.93524    |   4.2 |  3.42
Comm    | 0.56009    | 0.95016    | 1.245      |  19.0 |  3.77
Output  | 13.363     | 13.817     | 20.58      |  47.0 | 54.81
Modify  | 0.18871    | 6.9508     | 7.4053     |  66.2 | 27.57
Other   |            | 0.008543   |            |       |  0.03

Nlocal:    62.5 ave 66 max 56 min
Histogram: 1 0 0 0 1 2 3 4 2 3
Nghost:    1848.44 ave 1874 max 1828 min
Histogram: 1 1 4 1 2 3 2 1 0 1
Neighs:    0 ave 0 max 0 min
Histogram: 16 0 0 0 0 0 0 0 0 0
FullNghs:  18841.1 ave 20071 max 16936 min
Histogram: 1 0 0 3 0 3 3 2 3 1

Total # of neighbors = 301458
Ave neighs/atom = 301.458
Neighbor list builds = 1000
Dangerous builds not checked
Setting up Verlet run ...
  Unit style    : real
  Current step  : 3000
  Time step     : 1
Per MPI rank memory allocation (min/avg/max) = 3.769 | 4.528 | 4.579 Mbytes
Step Temp E_pair E_mol TotEng Press Volume Lx Ly Lz S/CPU 
    3000    295.70777   -10519.802            0   -9639.2344    15478.221    783.10971    9.2173809    9.2173809    9.2173809            0 
    3100    295.52043   -10525.528            0   -9645.5187    3185.7043    783.69683    9.2196839    9.2196839    9.2196839    41.914768 
    3200     285.0995   -10498.128            0   -9649.1501   -13081.874    784.47683    9.2227416    9.2227416    9.2227416    45.562422 
    3300    297.86002   -10541.424            0   -9654.4482   -16176.234    784.76858    9.2238848    9.2238848    9.2238848    45.883334 
    3400    287.90317   -10514.563            0   -9657.2366   -3018.5556    784.88302    9.2243331    9.2243331    9.2243331    42.007507 
    3500    294.13391   -10534.792            0   -9658.9113   -23672.196    784.56825    9.2230998    9.2230998    9.2230998    33.001418 
    3600    301.92772   -10558.004            0   -9658.9153   -18792.517    783.33526    9.2182658    9.2182658    9.2182658    45.130336 
    3700     291.9459   -10525.438            0    -9656.073    997.31289    781.53961    9.2112167    9.2112167    9.2112167    47.079724 
    3800    300.46852   -10546.912            0   -9652.1684   -249.84979    779.89213    9.2047397    9.2047397    9.2047397    37.442678 
    3900    289.35439   -10508.438            0   -9646.7899    9259.9547    778.44706     9.199051     9.199051     9.199051    38.035852 
    4000    296.21568   -10522.876            0   -9640.7966    4228.4916    777.53769    9.1954675    9.1954675    9.1954675    35.708579 
Loop time of 24.6109 on 16 procs for 1000 steps with 1000 atoms

Performance: 3.511 ns/day, 6.836 hours/ns, 40.632 timesteps/s
94.5% CPU use with 16 MPI tasks x no OpenMP threads

MPI task timing breakdown:
Section |  min time  |  avg time  |  max time  |%varavg| %total
---------------------------------------------------------------
Pair    | 2.4186     | 2.6477     | 2.8225     |   8.7 | 10.76
Neigh   | 0.79372    | 0.86495    | 0.91232    |   4.2 |  3.51
Comm    | 0.70354    | 0.9174     | 1.2225     |  18.7 |  3.73
Output  | 13.95      | 14.333     | 20.018     |  38.8 | 58.24
Modify  | 0.1667     | 5.8395     | 6.2328     |  60.6 | 23.73
Other   |            | 0.008595   |            |       |  0.03

Nlocal:    62.5 ave 70 max 58 min
Histogram: 4 3 1 0 2 2 1 1 1 1
Nghost:    1862.06 ave 1881 max 1843 min
Histogram: 2 1 1 2 1 2 2 4 0 1
Neighs:    0 ave 0 max 0 min
Histogram: 16 0 0 0 0 0 0 0 0 0
FullNghs:  18976.2 ave 21161 max 17592 min
Histogram: 4 4 0 0 2 2 1 1 1 1

Total # of neighbors = 303620
Ave neighs/atom = 303.62
Neighbor list builds = 1000
Dangerous builds not checked
Setting up Verlet run ...
  Unit style    : real
  Current step  : 4000
  Time step     : 1
Per MPI rank memory allocation (min/avg/max) = 4.577 | 4.578 | 4.579 Mbytes
Step Temp E_pair E_mol TotEng Press Volume Lx Ly Lz S/CPU 
    4000    296.21568   -10522.876            0   -9640.7966    4228.4916    777.53769    9.1954675    9.1954675    9.1954675            0 
    4100    296.49904   -10517.689            0   -9634.7659    14686.848    777.02161    9.1934326    9.1934326    9.1934326    39.857464 
    4200    293.43884   -10500.721            0   -9626.9105    14262.448    777.29202     9.194499     9.194499     9.194499    38.074478 
    4300    307.53612   -10536.234            0   -9620.4443    1790.7963    778.11589    9.1977463    9.1977463    9.1977463    43.908901 
    4400    315.39572   -10550.916            0   -9611.7215    6092.1279    779.18417    9.2019536    9.2019536    9.2019536    40.391936 
    4500    302.09288   -10503.452            0   -9603.8714    3384.1075    780.78716    9.2082596    9.2082596    9.2082596    40.444343 
    4600    293.22566   -10469.546            0   -9596.3703   -1499.6242    782.72735    9.2158805    9.2158805    9.2158805    44.815851 
    4700    291.04932   -10455.922            0    -9589.227   -13663.528    784.82036    9.2240876    9.2240876    9.2240876     28.51722 
    4800     294.5318    -10458.11            0   -9581.0449   -14296.888    786.27679      9.22979      9.22979      9.22979    34.627626 
    4900     297.8329   -10461.583            0   -9574.6877   -13399.227    787.01321    9.2326706    9.2326706    9.2326706     37.77691 
    5000    304.28149   -10473.564            0   -9567.4658   -3470.2163    787.20006    9.2334012    9.2334012    9.2334012    37.443727 
Loop time of 26.3048 on 16 procs for 1000 steps with 1000 atoms

Performance: 3.285 ns/day, 7.307 hours/ns, 38.016 timesteps/s
94.5% CPU use with 16 MPI tasks x no OpenMP threads

MPI task timing breakdown:
Section |  min time  |  avg time  |  max time  |%varavg| %total
---------------------------------------------------------------
Pair    | 2.3625     | 2.6175     | 2.8765     |   9.7 |  9.95
Neigh   | 0.78158    | 0.85402    | 0.91704    |   5.0 |  3.25
Comm    | 0.6211     | 0.94062    | 1.2695     |  20.8 |  3.58
Output  | 15.216     | 15.626     | 21.712     |  39.8 | 59.40
Modify  | 0.18196    | 6.2586     | 6.6672     |  62.7 | 23.79
Other   |            | 0.008506   |            |       |  0.03

Nlocal:    62.5 ave 71 max 55 min
Histogram: 1 1 0 4 2 2 5 0 0 1
Nghost:    1854.5 ave 1880 max 1831 min
Histogram: 2 2 0 2 3 2 0 3 0 2
Neighs:    0 ave 0 max 0 min
Histogram: 16 0 0 0 0 0 0 0 0 0
FullNghs:  18750.5 ave 21354 max 16626 min
Histogram: 2 0 3 2 2 3 3 0 0 1

Total # of neighbors = 300008
Ave neighs/atom = 300.008
Neighbor list builds = 1000
Dangerous builds not checked
Setting up Verlet run ...
  Unit style    : real
  Current step  : 5000
  Time step     : 1
Per MPI rank memory allocation (min/avg/max) = 4.577 | 4.578 | 4.579 Mbytes
Step Temp E_pair E_mol TotEng Press Volume Lx Ly Lz S/CPU 
    5000    304.28149   -10473.564            0   -9567.4658   -3470.2163    787.20006    9.2334012    9.2334012    9.2334012            0 
    5100    302.51588   -10461.682            0   -9560.8418   -15466.652    786.85033    9.2320336    9.2320336    9.2320336    37.802896 
    5200    297.96755   -10442.032            0   -9554.7352   -15805.461    785.71667    9.2275978    9.2275978    9.2275978    49.717131 
    5300    304.83831   -10457.551            0   -9549.7942   -4372.7883    783.87133    9.2203681    9.2203681    9.2203681    45.800502 
    5400    306.75107   -10460.567            0   -9547.1149    1294.3115    781.66718    9.2117178    9.2117178    9.2117178    37.076613 
    5500     304.6597   -10452.326            0   -9545.1015    20881.601     779.9984    9.2051578    9.2051578    9.2051578     31.32458 
    5600    319.78288   -10499.155            0   -9546.8963    20576.863    779.77882    9.2042939    9.2042939    9.2042939    41.242317 
    5700    311.28139   -10476.784            0   -9549.8415    7432.0466    780.71417    9.2079727    9.2079727    9.2079727    43.555437 
    5800    306.36261   -10468.853            0   -9556.5571    8907.2718    782.04941     9.213219     9.213219     9.213219    42.796333 
    5900    305.19029   -10473.695            0   -9564.8906    1001.6692    783.55385    9.2191232    9.2191232    9.2191232    41.983681 
    6000    285.74337   -10424.219            0   -9573.3239   -14088.506    784.75345    9.2238255    9.2238255    9.2238255    41.316187 
Loop time of 24.5891 on 16 procs for 1000 steps with 1000 atoms

Performance: 3.514 ns/day, 6.830 hours/ns, 40.668 timesteps/s
94.6% CPU use with 16 MPI tasks x no OpenMP threads

MPI task timing breakdown:
Section |  min time  |  avg time  |  max time  |%varavg| %total
---------------------------------------------------------------
Pair    | 2.3978     | 2.6296     | 2.8735     |   9.2 | 10.69
Neigh   | 0.78924    | 0.85791    | 0.91868    |   4.5 |  3.49
Comm    | 0.59392    | 0.8981     | 1.2008     |  19.9 |  3.65
Output  | 13.631     | 14.036     | 20.066     |  41.6 | 57.08
Modify  | 0.12747    | 6.1588     | 6.5682     |  62.8 | 25.05
Other   |            | 0.008551   |            |       |  0.03

Nlocal:    62.5 ave 67 max 57 min
Histogram: 2 0 0 1 3 2 1 2 3 2
Nghost:    1851 ave 1872 max 1827 min
Histogram: 2 1 1 1 0 3 2 3 2 1
Neighs:    0 ave 0 max 0 min
Histogram: 16 0 0 0 0 0 0 0 0 0
FullNghs:  18791.4 ave 20114 max 16972 min
Histogram: 2 0 0 1 4 1 1 4 1 2

Total # of neighbors = 300662
Ave neighs/atom = 300.662
Neighbor list builds = 1000
Dangerous builds not checked
Setting up Verlet run ...
  Unit style    : real
  Current step  : 6000
  Time step     : 1
Per MPI rank memory allocation (min/avg/max) = 4.577 | 4.578 | 4.579 Mbytes
Step Temp E_pair E_mol TotEng Press Volume Lx Ly Lz S/CPU 
    6000    285.74337   -10424.219            0   -9573.3239   -14088.506    784.75345    9.2238255    9.2238255    9.2238255            0 
    6100    292.22812    -10453.54            0   -9583.3348    1345.6243    785.72075    9.2276137    9.2276137    9.2276137     54.86144 
    6200    294.81625    -10472.29            0   -9594.3778    1715.3384    786.62172    9.2311394    9.2311394    9.2311394    35.355216 
    6300    288.41573   -10460.233            0   -9601.3804   -11467.036    787.28077    9.2337167    9.2337167    9.2337167    43.258516 
    6400    292.49348   -10479.649            0   -9608.6531   -3111.7563     787.7632    9.2356024    9.2356024    9.2356024    38.705536 
    6500    283.62883   -10457.239            0   -9612.6412   -8138.4909    787.88266    9.2360693    9.2360693    9.2360693    43.246289 
    6600    294.34121    -10491.13            0   -9614.6316   -8052.6641    787.61006    9.2350039    9.2350039    9.2350039     44.17591 
    6700     292.1624   -10483.153            0   -9613.1432   -7066.3995    786.79261    9.2318079    9.2318079    9.2318079    42.589723 
    6800    287.62775   -10466.206            0   -9609.6993   -8764.7204    785.30642    9.2259915    9.2259915    9.2259915    42.845073 
    6900    290.46738   -10469.868            0   -9604.9061    15402.211    783.32538     9.218227     9.218227     9.218227    46.095307 
    7000    300.40586   -10494.104            0   -9599.5463     6352.003    781.98924    9.2129828    9.2129828    9.2129828    43.744239 
Loop time of 23.2599 on 16 procs for 1000 steps with 1000 atoms

Performance: 3.715 ns/day, 6.461 hours/ns, 42.992 timesteps/s
94.6% CPU use with 16 MPI tasks x no OpenMP threads

MPI task timing breakdown:
Section |  min time  |  avg time  |  max time  |%varavg| %total
---------------------------------------------------------------
Pair    | 2.4348     | 2.631      | 2.8618     |   8.0 | 11.31
Neigh   | 0.79387    | 0.86301    | 0.92194    |   4.2 |  3.71
Comm    | 0.56505    | 0.8508     | 1.1169     |  18.3 |  3.66
Output  | 12.425     | 12.831     | 18.702     |  42.3 | 55.16
Modify  | 0.21164    | 6.0759     | 6.485      |  61.4 | 26.12
Other   |            | 0.008581   |            |       |  0.04

Nlocal:    62.5 ave 69 max 57 min
Histogram: 2 1 2 2 1 3 2 1 1 1
Nghost:    1856.5 ave 1885 max 1835 min
Histogram: 1 3 3 0 4 1 0 1 2 1
Neighs:    0 ave 0 max 0 min
Histogram: 16 0 0 0 0 0 0 0 0 0
FullNghs:  18893.2 ave 20832 max 17102 min
Histogram: 2 1 1 3 2 1 1 3 1 1

Total # of neighbors = 302292
Ave neighs/atom = 302.292
Neighbor list builds = 1000
Dangerous builds not checked
Setting up Verlet run ...
  Unit style    : real
  Current step  : 7000
  Time step     : 1
Per MPI rank memory allocation (min/avg/max) = 4.577 | 4.578 | 4.579 Mbytes
Step Temp E_pair E_mol TotEng Press Volume Lx Ly Lz S/CPU 
    7000    300.40586   -10494.104            0   -9599.5463     6352.003    781.98924    9.2129828    9.2129828    9.2129828            0 
    7100    291.63185   -10461.563            0   -9593.1329    9671.6655    781.49336     9.211035     9.211035     9.211035    37.576504 
    7200    294.99894    -10465.55            0    -9587.093   -1005.2695    781.53593    9.2112022    9.2112022    9.2112022    42.510191 
    7300    300.22764   -10476.704            0   -9582.6771    12069.002    781.69596    9.2118309    9.2118309    9.2118309    42.253664 
    7400    300.50871   -10473.522            0   -9578.6584    916.85616    782.02877     9.213138     9.213138     9.213138    31.440057 
    7500    306.64679   -10489.157            0    -9576.015    6857.0452     782.3447    9.2143785    9.2143785    9.2143785     43.17159 
    7600    306.60797   -10485.314            0   -9572.2878   -962.33032    782.73484    9.2159099    9.2159099    9.2159099    44.503769 
    7700    311.19277   -10495.822            0   -9569.1433    16760.193     783.4385    9.2186707    9.2186707    9.2186707    33.420373 
    7800    300.54057   -10461.486            0    -9566.527   -5957.6438    784.76071    9.2238539    9.2238539    9.2238539    43.147566 
    7900    304.16731   -10467.264            0   -9561.5061    5722.5689    786.17262    9.2293824    9.2293824    9.2293824    37.960706 
    8000    297.21164   -10437.621            0   -9552.5752    7097.9271    787.76834    9.2356225    9.2356225    9.2356225    57.950285 
Loop time of 24.794 on 16 procs for 1000 steps with 1000 atoms

Performance: 3.485 ns/day, 6.887 hours/ns, 40.332 timesteps/s
94.5% CPU use with 16 MPI tasks x no OpenMP threads

MPI task timing breakdown:
Section |  min time  |  avg time  |  max time  |%varavg| %total
---------------------------------------------------------------
Pair    | 2.3661     | 2.611      | 2.785      |   8.1 | 10.53
Neigh   | 0.78411    | 0.85378    | 0.90591    |   4.5 |  3.44
Comm    | 0.67718    | 0.90741    | 1.2188     |  18.1 |  3.66
Output  | 14.144     | 14.528     | 20.237     |  38.7 | 58.59
Modify  | 0.17945    | 5.8853     | 6.2728     |  60.7 | 23.74
Other   |            | 0.008514   |            |       |  0.03

Nlocal:    62.5 ave 66 max 57 min
Histogram: 1 0 2 2 1 1 1 3 3 2
Nghost:    1858.31 ave 1876 max 1847 min
Histogram: 1 2 3 4 2 0 2 1 0 1
Neighs:    0 ave 0 max 0 min
Histogram: 16 0 0 0 0 0 0 0 0 0
FullNghs:  18743 ave 19961 max 17284 min
Histogram: 1 2 3 1 0 1 1 2 2 3

Total # of neighbors = 299888
Ave neighs/atom = 299.888
Neighbor list builds = 1000
Dangerous builds not checked
Setting up Verlet run ...
  Unit style    : real
  Current step  : 8000
  Time step     : 1
Per MPI rank memory allocation (min/avg/max) = 4.577 | 4.578 | 4.579 Mbytes
Step Temp E_pair E_mol TotEng Press Volume Lx Ly Lz S/CPU 
    8000    297.21164   -10437.621            0   -9552.5752    7097.9271    787.76834    9.2356225    9.2356225    9.2356225            0 
    8100       310.78   -10465.197            0   -9539.7469   -1917.4801    789.68553    9.2431087    9.2431087    9.2431087    46.349024 
    8200    314.02922   -10457.394            0   -9522.2683   -6234.3912    791.80515    9.2513712    9.2513712    9.2513712    45.367139 
    8300    309.97836   -10430.417            0   -9507.3539   -17809.129    793.47343     9.257864     9.257864     9.257864    49.949579 
    8400    316.69305   -10440.386            0   -9497.3285   -1773.3369    794.66783    9.2625069    9.2625069    9.2625069     50.65899 
    8500    320.87006   -10446.767            0   -9491.2711    6823.4813    795.52698    9.2658437    9.2658437    9.2658437    35.227943 
    8600    309.08567   -10408.483            0   -9488.0785   -3361.7254    795.93854    9.2674413    9.2674413    9.2674413    46.160319 
    8700    305.98196   -10398.754            0   -9487.5917    511.79942    795.56336     9.265985     9.265985     9.265985    54.099441 
    8800    305.17319   -10399.957            0   -9491.2029      6822.73    794.55489    9.2620681    9.2620681    9.2620681    41.912117 
    8900    306.16222   -10409.369            0   -9497.6703    9742.8754    793.13129    9.2565332    9.2565332    9.2565332    48.908878 
    9000    305.99353   -10418.165            0   -9506.9688   -8097.5734    791.74163    9.2511238    9.2511238    9.2511238    41.088052 
Loop time of 22.0556 on 16 procs for 1000 steps with 1000 atoms

Performance: 3.917 ns/day, 6.127 hours/ns, 45.340 timesteps/s
94.6% CPU use with 16 MPI tasks x no OpenMP threads

MPI task timing breakdown:
Section |  min time  |  avg time  |  max time  |%varavg| %total
---------------------------------------------------------------
Pair    | 2.2699     | 2.5473     | 2.7709     |  10.1 | 11.55
Neigh   | 0.77224    | 0.84792    | 0.91158    |   5.0 |  3.84
Comm    | 0.62502    | 0.91442    | 1.2666     |  21.6 |  4.15
Output  | 12.386     | 12.723     | 17.657     |  35.7 | 57.69
Modify  | 0.076883   | 5.0141     | 5.3527     |  56.9 | 22.73
Other   |            | 0.008455   |            |       |  0.04

Nlocal:    62.5 ave 68 max 56 min
Histogram: 1 1 0 0 5 3 3 1 0 2
Nghost:    1839.5 ave 1858 max 1826 min
Histogram: 2 2 0 4 3 2 0 0 2 1
Neighs:    0 ave 0 max 0 min
Histogram: 16 0 0 0 0 0 0 0 0 0
FullNghs:  18651.2 ave 20400 max 16674 min
Histogram: 1 1 0 2 3 2 4 1 1 1

Total # of neighbors = 298420
Ave neighs/atom = 298.42
Neighbor list builds = 1000
Dangerous builds not checked
Setting up Verlet run ...
  Unit style    : real
  Current step  : 9000
  Time step     : 1
Per MPI rank memory allocation (min/avg/max) = 4.577 | 4.578 | 4.579 Mbytes
Step Temp E_pair E_mol TotEng Press Volume Lx Ly Lz S/CPU 
    9000    305.99353   -10418.165            0   -9506.9688   -8097.5734    791.74163    9.2511238    9.2511238    9.2511238            0 
    9100    312.76781   -10448.509            0   -9517.1403    2197.0305    790.15264    9.2449308    9.2449308    9.2449308     59.08794 
    9200    316.11943   -10470.558            0   -9529.2083     4271.988    788.77678    9.2395618    9.2395618    9.2395618    46.773961 
    9300    311.40947   -10469.272            0   -9541.9476    11332.523    787.63704    9.2351094    9.2351094    9.2351094    46.448614 
    9400    304.78454   -10461.721            0   -9554.1248   -8238.7782    786.76571    9.2317027    9.2317027    9.2317027    28.013914 
    9500    311.04978   -10491.039            0   -9564.7859     508.7777    786.00059    9.2287091    9.2287091    9.2287091     42.73703 
    9600    299.41068   -10465.178            0   -9573.5837     3311.341    785.06244     9.225036     9.225036     9.225036     54.28866 
    9700    314.62074   -10518.931            0   -9582.0441    7573.0582    784.29279    9.2220203    9.2220203    9.2220203    31.668408 
    9800    297.95161    -10474.25            0   -9587.0008    1982.1929    784.16493    9.2215191    9.2215191    9.2215191     40.81065 
    9900    300.89344   -10489.609            0   -9593.6001    8605.1233    784.38962    9.2223998    9.2223998    9.2223998    45.996365 
   10000    304.45784   -10505.093            0   -9598.4698    10183.511     784.8613     9.224248     9.224248     9.224248    36.783123 
Loop time of 24.2356 on 16 procs for 1000 steps with 1000 atoms

Performance: 3.565 ns/day, 6.732 hours/ns, 41.262 timesteps/s
94.6% CPU use with 16 MPI tasks x no OpenMP threads

MPI task timing breakdown:
Section |  min time  |  avg time  |  max time  |%varavg| %total
---------------------------------------------------------------
Pair    | 2.3716     | 2.6116     | 2.7968     |   6.7 | 10.78
Neigh   | 0.7927     | 0.85897    | 0.90781    |   3.8 |  3.54
Comm    | 0.58859    | 0.81806    | 1.1256     |  15.7 |  3.38
Output  | 13.162     | 13.58      | 19.793     |  43.5 | 56.03
Modify  | 0.14947    | 6.3585     | 6.7764     |  63.6 | 26.24
Other   |            | 0.008525   |            |       |  0.04

Nlocal:    62.5 ave 67 max 58 min
Histogram: 2 1 0 4 1 1 3 1 2 1
Nghost:    1852 ave 1883 max 1824 min
Histogram: 2 1 1 1 2 3 3 2 0 1
Neighs:    0 ave 0 max 0 min
Histogram: 16 0 0 0 0 0 0 0 0 0
FullNghs:  18809 ave 20244 max 17302 min
Histogram: 3 0 0 4 1 1 1 3 0 3

Total # of neighbors = 300944
Ave neighs/atom = 300.944
Neighbor list builds = 1000
Dangerous builds not checked
Setting up Verlet run ...
  Unit style    : real
  Current step  : 10000
  Time step     : 1
Per MPI rank memory allocation (min/avg/max) = 4.577 | 4.578 | 4.579 Mbytes
Step Temp E_pair E_mol TotEng Press Volume Lx Ly Lz S/CPU 
   10000    304.45784   -10505.093            0   -9598.4698    10183.511     784.8613     9.224248     9.224248     9.224248            0 
   10100    283.01177   -10444.025            0   -9601.2642    7277.4389    785.87677    9.2282245    9.2282245    9.2282245    39.922507 
   10200    294.71338   -10482.934            0   -9605.3281   -4875.8968    787.15331    9.2332184    9.2332184    9.2332184    35.804423 
   10300    294.98914   -10485.197            0   -9606.7698    5084.8613    788.47568    9.2383859    9.2383859    9.2383859    44.364804 
   10400    296.26531   -10491.654            0   -9609.4263    3675.7295     789.5116      9.24243      9.24243      9.24243     31.57606 
   10500    308.60127   -10530.275            0   -9611.3127   -14305.385    790.02417    9.2444297    9.2444297    9.2444297    43.572187 
   10600    288.57335   -10469.836            0    -9610.514   -10858.399     790.0477    9.2445215    9.2445215    9.2445215    25.851452 
   10700    307.49586   -10526.593            0   -9610.9228   -10511.547    789.41817    9.2420654    9.2420654    9.2420654    33.719029 
   10800     295.1289   -10486.389            0   -9607.5454   -12114.882    788.30228    9.2377086    9.2377086    9.2377086    37.524227 
   10900    305.80587   -10515.952            0   -9605.3141   -5058.6188    786.68667    9.2313935    9.2313935    9.2313935     33.86085 
   11000     305.9312   -10512.453            0   -9601.4419   -884.95717    784.92506    9.2244978    9.2244978    9.2244978    32.490507 
Loop time of 28.5438 on 16 procs for 1000 steps with 1000 atoms

Performance: 3.027 ns/day, 7.929 hours/ns, 35.034 timesteps/s
94.4% CPU use with 16 MPI tasks x no OpenMP threads

MPI task timing breakdown:
Section |  min time  |  avg time  |  max time  |%varavg| %total
---------------------------------------------------------------
Pair    | 2.3136     | 2.5916     | 2.8711     |   9.1 |  9.08
Neigh   | 0.78313    | 0.85715    | 0.93182    |   4.6 |  3.00
Comm    | 0.52507    | 0.87831    | 1.2323     |  20.2 |  3.08
Output  | 15.315     | 15.865     | 24.052     |  53.1 | 55.58
Modify  | 0.1691     | 8.3438     | 8.8987     |  73.1 | 29.23
Other   |            | 0.008496   |            |       |  0.03

Nlocal:    62.5 ave 66 max 58 min
Histogram: 1 2 3 0 0 0 3 2 3 2
Nghost:    1860.38 ave 1880 max 1844 min
Histogram: 3 1 2 1 0 4 1 2 0 2
Neighs:    0 ave 0 max 0 min
Histogram: 16 0 0 0 0 0 0 0 0 0
FullNghs:  18810.6 ave 19857 max 17260 min
Histogram: 1 1 2 1 1 1 2 0 3 4

Total # of neighbors = 300970
Ave neighs/atom = 300.97
Neighbor list builds = 1000
Dangerous builds not checked
Setting up Verlet run ...
  Unit style    : real
  Current step  : 11000
  Time step     : 1
Per MPI rank memory allocation (min/avg/max) = 4.577 | 4.578 | 4.579 Mbytes
Step Temp E_pair E_mol TotEng Press Volume Lx Ly Lz S/CPU 
   11000     305.9312   -10512.453            0   -9601.4419   -884.95717    784.92506    9.2244978    9.2244978    9.2244978            0 
   11100    302.79927   -10496.658            0   -9594.9736    7801.1026    783.47096    9.2187981    9.2187981    9.2187981    32.740044 
   11200    301.50815   -10484.498            0   -9586.6578    19798.234    782.40072    9.2145984    9.2145984    9.2145984    45.909112 
   11300    299.51866   -10469.283            0    -9577.368    13796.422    782.57636    9.2152879    9.2152879    9.2152879    38.723066 
   11400     300.3901   -10461.492            0   -9566.9815    5626.2055    783.52746    9.2190197    9.2190197    9.2190197     38.17419 
   11500    296.98975   -10440.095            0   -9555.7099    -1169.315    785.04585     9.224971     9.224971     9.224971    34.493887 
   11600    295.50971    -10425.64            0   -9545.6622     6126.039    787.31399    9.2338466    9.2338466    9.2338466      42.3374 
   11700    301.82228   -10434.797            0   -9536.0214   -4233.3286    789.60847     9.242808     9.242808     9.242808    45.758936 
   11800    300.56256   -10423.346            0    -9528.322   -7380.6154     791.6853    9.2509044    9.2509044    9.2509044    45.151148 
   11900    310.23572   -10445.447            0    -9521.618   -12381.164     793.4726    9.2578608    9.2578608    9.2578608    33.264934 
   12000    308.13076   -10434.372            0   -9516.8117   -15696.782    794.67186    9.2625226    9.2625226    9.2625226    45.271507 
Loop time of 25.3109 on 16 procs for 1000 steps with 1000 atoms

Performance: 3.414 ns/day, 7.031 hours/ns, 39.509 timesteps/s
94.5% CPU use with 16 MPI tasks x no OpenMP threads

MPI task timing breakdown:
Section |  min time  |  avg time  |  max time  |%varavg| %total
---------------------------------------------------------------
Pair    | 2.3772     | 2.607      | 2.8535     |   8.7 | 10.30
Neigh   | 0.78357    | 0.85825    | 0.92252    |   4.7 |  3.39
Comm    | 0.57193    | 0.88286    | 1.1819     |  19.5 |  3.49
Output  | 13.889     | 14.324     | 20.754     |  43.9 | 56.59
Modify  | 0.20127    | 6.6298     | 7.0651     |  64.5 | 26.19
Other   |            | 0.00854    |            |       |  0.03

Nlocal:    62.5 ave 66 max 59 min
Histogram: 1 1 4 0 3 2 0 1 3 1
Nghost:    1842.94 ave 1856 max 1831 min
Histogram: 1 2 3 0 2 1 3 1 2 1
Neighs:    0 ave 0 max 0 min
Histogram: 16 0 0 0 0 0 0 0 0 0
FullNghs:  18567.8 ave 19702 max 17435 min
Histogram: 1 1 1 4 2 2 0 3 1 1

Total # of neighbors = 297084
Ave neighs/atom = 297.084
Neighbor list builds = 1000
Dangerous builds not checked
Setting up Verlet run ...
  Unit style    : real
  Current step  : 12000
  Time step     : 1
Per MPI rank memory allocation (min/avg/max) = 4.577 | 4.578 | 4.579 Mbytes
Step Temp E_pair E_mol TotEng Press Volume Lx Ly Lz S/CPU 
   12000    308.13076   -10434.372            0   -9516.8117   -15696.782    794.67186    9.2625226    9.2625226    9.2625226            0 
   12100    306.78027   -10426.727            0   -9513.1877   -3603.4573    794.83574    9.2631592    9.2631592    9.2631592     46.29244 
   12200    306.09661   -10423.287            0   -9511.7838   -18982.243    794.38598    9.2614117    9.2614117    9.2614117    40.797049 
   12300    304.33307   -10418.317            0    -9512.065    -8915.623    793.11772    9.2564804    9.2564804    9.2564804    37.229546 
   12400    305.06073   -10422.656            0   -9514.2375   -4179.6627    791.15844    9.2488518    9.2488518    9.2488518    29.238011 
   12500    304.82387   -10427.578            0   -9519.8648    9470.6909    788.75201     9.239465     9.239465     9.239465    40.277941 
   12600    304.45413   -10434.271            0   -9527.6584    4402.3431     786.2457    9.2296683    9.2296683    9.2296683    41.424922 
   12700    304.72598   -10446.296            0   -9538.8738   -648.51223    783.88563    9.2204242    9.2204242    9.2204242    41.426582 
   12800    305.56634   -10460.769            0    -9550.845    5550.6231    781.82844    9.2123513    9.2123513    9.2123513    32.677128 
   12900    303.40757   -10468.149            0   -9564.6533     10428.47    780.13241    9.2056849    9.2056849    9.2056849    35.400347 
   13000    310.11689   -10500.112            0   -9576.6364     21459.58    779.21024    9.2020563    9.2020563    9.2020563    35.906245 
Loop time of 26.6984 on 16 procs for 1000 steps with 1000 atoms

Performance: 3.236 ns/day, 7.416 hours/ns, 37.455 timesteps/s
94.5% CPU use with 16 MPI tasks x no OpenMP threads

MPI task timing breakdown:
Section |  min time  |  avg time  |  max time  |%varavg| %total
---------------------------------------------------------------
Pair    | 2.3832     | 2.6029     | 2.8377     |   7.2 |  9.75
Neigh   | 0.79886    | 0.85925    | 0.91603    |   3.8 |  3.22
Comm    | 0.54418    | 0.83638    | 1.1166     |  16.4 |  3.13
Output  | 15.173     | 15.62      | 22.283     |  43.5 | 58.51
Modify  | 0.10719    | 6.7708     | 7.2186     |  66.1 | 25.36
Other   |            | 0.008495   |            |       |  0.03

Nlocal:    62.5 ave 69 max 57 min
Histogram: 1 2 2 1 3 3 0 2 1 1
Nghost:    1871.25 ave 1900 max 1855 min
Histogram: 3 3 2 2 1 1 2 1 0 1
Neighs:    0 ave 0 max 0 min
Histogram: 16 0 0 0 0 0 0 0 0 0
FullNghs:  18940 ave 21012 max 17208 min
Histogram: 1 3 1 2 2 3 0 2 1 1

Total # of neighbors = 303040
Ave neighs/atom = 303.04
Neighbor list builds = 1000
Dangerous builds not checked
Setting up Verlet run ...
  Unit style    : real
  Current step  : 13000
  Time step     : 1
Per MPI rank memory allocation (min/avg/max) = 4.577 | 4.578 | 4.579 Mbytes
Step Temp E_pair E_mol TotEng Press Volume Lx Ly Lz S/CPU 
   13000    310.11689   -10500.112            0   -9576.6364     21459.58    779.21024    9.2020563    9.2020563    9.2020563            0 
   13100    314.60872   -10524.872            0    -9588.021    14199.549    779.49471    9.2031759    9.2031759    9.2031759     37.83167 
   13200    297.91507   -10480.581            0   -9593.4412    2237.6968    780.55984    9.2073659    9.2073659    9.2073659    39.944365 
   13300    295.34147   -10476.616            0   -9597.1399       -19918    781.77102    9.2121257    9.2121257    9.2121257    30.907985 
   13400    302.52036   -10500.143            0   -9599.2893    7506.8323    782.64763    9.2155677    9.2155677    9.2155677    44.064187 
   13500    297.12265   -10486.056            0   -9601.2756    7792.6866    783.73518    9.2198343    9.2198343    9.2198343    38.016366 
   13600    297.20955   -10486.999            0   -9601.9594   -5743.0758    784.71968    9.2236932    9.2236932    9.2236932    44.221798 
   13700    291.38804   -10469.045            0   -9601.3411   -13631.072    785.37351    9.2262542    9.2262542    9.2262542     46.93373 
   13800    294.30937   -10477.633            0   -9601.2299   -2547.5083    785.65542     9.227358     9.227358     9.227358    37.860409 
   13900    296.31714   -10483.617            0   -9601.2349     5423.067    785.80759    9.2279537    9.2279537    9.2279537    43.228439 
   14000    308.49501   -10519.759            0   -9601.1134   -380.83495     786.2379    9.2296378    9.2296378    9.2296378    39.796657 
Loop time of 25.1414 on 16 procs for 1000 steps with 1000 atoms

Performance: 3.437 ns/day, 6.984 hours/ns, 39.775 timesteps/s
94.6% CPU use with 16 MPI tasks x no OpenMP threads

MPI task timing breakdown:
Section |  min time  |  avg time  |  max time  |%varavg| %total
---------------------------------------------------------------
Pair    | 2.2811     | 2.5074     | 2.9576     |  11.6 |  9.97
Neigh   | 0.76982    | 0.82624    | 0.92395    |   5.5 |  3.29
Comm    | 0.38324    | 0.93185    | 1.2155     |  24.0 |  3.71
Output  | 14.043     | 14.469     | 20.816     |  43.1 | 57.55
Modify  | 0.051254   | 6.3982     | 6.8245     |  64.8 | 25.45
Other   |            | 0.008337   |            |       |  0.03

Nlocal:    62.5 ave 68 max 57 min
Histogram: 3 0 0 3 4 0 2 1 0 3
Nghost:    1858.75 ave 1871 max 1836 min
Histogram: 1 1 1 0 1 1 3 0 5 3
Neighs:    0 ave 0 max 0 min
Histogram: 16 0 0 0 0 0 0 0 0 0
FullNghs:  18772.1 ave 20679 max 17039 min
Histogram: 3 0 0 4 3 1 2 0 0 3

Total # of neighbors = 300354
Ave neighs/atom = 300.354
Neighbor list builds = 1000
Dangerous builds not checked
Setting up Verlet run ...
  Unit style    : real
  Current step  : 14000
  Time step     : 1
Per MPI rank memory allocation (min/avg/max) = 4.577 | 4.578 | 4.579 Mbytes
Step Temp E_pair E_mol TotEng Press Volume Lx Ly Lz S/CPU 
   14000    308.49501   -10519.759            0   -9601.1134   -380.83495     786.2379    9.2296378    9.2296378    9.2296378            0 
   14100    299.35706   -10490.483            0   -9599.0491   -554.30433    786.48789    9.2306159    9.2306159    9.2306159    35.631656 
   14200    295.61201   -10477.558            0   -9597.2758   -12652.253    786.88928     9.232186     9.232186     9.232186    47.817698 
   14300     305.5824   -10506.329            0   -9596.3573   -19501.508     787.1109    9.2330526    9.2330526    9.2330526    34.456998 
   14400    288.97776   -10454.509            0   -9593.9821   -13702.781    786.76372    9.2316949    9.2316949    9.2316949    36.654656 
   14500    303.08619   -10495.298            0   -9592.7587   -7196.7197    785.84888    9.2281153    9.2281153    9.2281153    45.540193 
   14600    296.03247   -10472.946            0    -9591.412   -923.45737    784.63639    9.2233668    9.2233668    9.2233668     40.12399 
   14700    306.32537    -10503.23            0   -9591.0456    7524.0631    783.22285    9.2178248    9.2178248    9.2178248    47.525263 
   14800    299.91616   -10481.756            0    -9588.657    14281.859     782.0088    9.2130596    9.2130596    9.2130596    48.678599 
   14900    305.26198   -10495.712            0   -9586.6939    861.23157    781.20234    9.2098915    9.2098915    9.2098915    42.885656 
   15000    304.01145   -10490.653            0   -9585.3585    10801.729    780.35121    9.2065455    9.2065455    9.2065455    52.621019 
Loop time of 23.6069 on 16 procs for 1000 steps with 1000 atoms

Performance: 3.660 ns/day, 6.557 hours/ns, 42.361 timesteps/s
94.6% CPU use with 16 MPI tasks x no OpenMP threads

MPI task timing breakdown:
Section |  min time  |  avg time  |  max time  |%varavg| %total
---------------------------------------------------------------
Pair    | 2.2713     | 2.524      | 2.8284     |  10.7 | 10.69
Neigh   | 0.77923    | 0.83232    | 0.91968    |   4.9 |  3.53
Comm    | 0.48794    | 0.8809     | 1.1872     |  22.8 |  3.73
Output  | 13.089     | 13.481     | 19.31      |  41.0 | 57.11
Modify  | 0.051447   | 5.8804     | 6.2725     |  62.1 | 24.91
Other   |            | 0.008314   |            |       |  0.04

Nlocal:    62.5 ave 69 max 59 min
Histogram: 2 4 0 2 3 2 0 2 0 1
Nghost:    1855.94 ave 1877 max 1840 min
Histogram: 5 1 1 1 0 1 1 4 0 2
Neighs:    0 ave 0 max 0 min
Histogram: 16 0 0 0 0 0 0 0 0 0
FullNghs:  18929 ave 20980 max 17632 min
Histogram: 2 3 2 2 2 2 0 2 0 1

Total # of neighbors = 302864
Ave neighs/atom = 302.864
Neighbor list builds = 1000
Dangerous builds not checked
Setting up Verlet run ...
  Unit style    : real
  Current step  : 15000
  Time step     : 1
Per MPI rank memory allocation (min/avg/max) = 4.577 | 4.578 | 4.579 Mbytes
Step Temp E_pair E_mol TotEng Press Volume Lx Ly Lz S/CPU 
   15000    304.01145   -10490.653            0   -9585.3585    10801.729    780.35121    9.2065455    9.2065455    9.2065455            0 
   15100      303.864    -10487.65            0   -9582.7944    10473.724    779.72915    9.2040985    9.2040985    9.2040985    36.137131 
   15200    293.57546   -10454.355            0   -9580.1377    10456.486    779.65826    9.2038195    9.2038195    9.2038195    39.001904 
   15300    296.04444   -10461.583            0   -9580.0135    14700.832    780.16677    9.2058201    9.2058201    9.2058201    45.847671 
   15400    299.67401   -10471.386            0   -9579.0077   -4672.6217    781.16043    9.2097267    9.2097267    9.2097267    42.539493 
   15500    308.05424   -10497.122            0   -9579.7887    1535.9675    782.08162    9.2133455    9.2133455    9.2133455    43.126438 
   15600    301.02825   -10477.145            0   -9580.7345    -5021.259     782.8241    9.2162602    9.2162602    9.2162602    46.426251 
   15700    302.23802   -10481.412            0   -9581.3984   -2412.4424    783.37094    9.2184057    9.2184057    9.2184057    46.797806 
   15800      286.163   -10434.346            0   -9582.2019   -8076.7168    783.55159    9.2191143    9.2191143    9.2191143    41.841351 
   15900     302.8476    -10487.85            0   -9586.0214   -60.086513    783.36821     9.218395     9.218395     9.218395    41.389778 
   16000    306.27863    -10503.63            0    -9591.585   -8388.5944    782.92373    9.2166512    9.2166512    9.2166512     43.35539 
Loop time of 23.5852 on 16 procs for 1000 steps with 1000 atoms

Performance: 3.663 ns/day, 6.551 hours/ns, 42.399 timesteps/s
94.6% CPU use with 16 MPI tasks x no OpenMP threads

MPI task timing breakdown:
Section |  min time  |  avg time  |  max time  |%varavg| %total
---------------------------------------------------------------
Pair    | 2.4011     | 2.6055     | 2.8317     |   8.3 | 11.05
Neigh   | 0.79064    | 0.84795    | 0.9113     |   4.2 |  3.60
Comm    | 0.53971    | 0.82579    | 1.0884     |  18.9 |  3.50
Output  | 12.948     | 13.344     | 19.223     |  41.6 | 56.58
Modify  | 0.079382   | 5.9538     | 6.3523     |  62.2 | 25.24
Other   |            | 0.008483   |            |       |  0.04

Nlocal:    62.5 ave 69 max 56 min
Histogram: 1 0 2 4 1 1 4 1 0 2
Nghost:    1860.12 ave 1892 max 1828 min
Histogram: 1 0 4 0 1 4 3 2 0 1
Neighs:    0 ave 0 max 0 min
Histogram: 16 0 0 0 0 0 0 0 0 0
FullNghs:  18852.4 ave 20737 max 16691 min
Histogram: 1 0 2 3 2 1 2 3 0 2

Total # of neighbors = 301638
Ave neighs/atom = 301.638
Neighbor list builds = 1000
Dangerous builds not checked
Setting up Verlet run ...
  Unit style    : real
  Current step  : 16000
  Time step     : 1
Per MPI rank memory allocation (min/avg/max) = 4.577 | 4.578 | 4.579 Mbytes
Step Temp E_pair E_mol TotEng Press Volume Lx Ly Lz S/CPU 
   16000    306.27863    -10503.63            0    -9591.585   -8388.5944    782.92373    9.2166512    9.2166512    9.2166512            0 
   16100    298.97036   -10487.087            0   -9596.8046    15198.494    782.40917    9.2146316    9.2146316    9.2146316    51.384323 
   16200    304.15838   -10510.411            0   -9604.6792    121.06373    782.26237    9.2140553    9.2140553    9.2140553    32.623176 
   16300    284.80697   -10458.226            0   -9610.1191    7323.5496    782.13053    9.2135376    9.2135376    9.2135376    49.772433 
   16400    300.14466   -10512.267            0   -9618.4875    -9278.266    782.11441    9.2134743    9.2134743    9.2134743     49.11119 
   16500    293.20291   -10496.978            0   -9623.8702   -9625.2354    782.07234    9.2133091    9.2133091    9.2133091    40.914044 
   16600    295.07253   -10507.465            0   -9628.7897   -2993.8197    781.98589    9.2129696    9.2129696    9.2129696    51.838642 
   16700    290.10172   -10494.634            0   -9630.7602     316.0034    781.40876    9.2107026    9.2107026    9.2107026    48.818064 
   16800    301.45883   -10530.407            0   -9632.7141    -1106.467    780.42696    9.2068434    9.2068434    9.2068434    37.037196 
   16900    292.21634   -10503.213            0    -9633.043    704.58216    779.55186    9.2034008    9.2034008    9.2034008    53.656256 
   17000    304.83416   -10541.585            0   -9633.8409    22755.581    778.82063    9.2005223    9.2005223    9.2005223    38.531358 
Loop time of 22.6374 on 16 procs for 1000 steps with 1000 atoms

Performance: 3.817 ns/day, 6.288 hours/ns, 44.175 timesteps/s
94.6% CPU use with 16 MPI tasks x no OpenMP threads

MPI task timing breakdown:
Section |  min time  |  avg time  |  max time  |%varavg| %total
---------------------------------------------------------------
Pair    | 2.4157     | 2.5653     | 2.721      |   5.7 | 11.33
Neigh   | 0.80063    | 0.83855    | 0.8869     |   2.4 |  3.70
Comm    | 0.70479    | 0.90979    | 1.1067     |  11.9 |  4.02
Output  | 12.313     | 12.684     | 18.186     |  39.9 | 56.03
Modify  | 0.13336    | 5.6315     | 6.0046     |  59.8 | 24.88
Other   |            | 0.008468   |            |       |  0.04

Nlocal:    62.5 ave 68 max 56 min
Histogram: 1 0 1 1 3 5 0 2 2 1
Nghost:    1863.19 ave 1880 max 1850 min
Histogram: 2 1 2 3 1 0 2 4 0 1
Neighs:    0 ave 0 max 0 min
Histogram: 16 0 0 0 0 0 0 0 0 0
FullNghs:  18961.2 ave 20508 max 16949 min
Histogram: 1 0 1 1 4 3 1 1 3 1

Total # of neighbors = 303380
Ave neighs/atom = 303.38
Neighbor list builds = 1000
Dangerous builds not checked
Setting up Verlet run ...
  Unit style    : real
  Current step  : 17000
  Time step     : 1
Per MPI rank memory allocation (min/avg/max) = 4.577 | 4.578 | 4.579 Mbytes
Step Temp E_pair E_mol TotEng Press Volume Lx Ly Lz S/CPU 
   17000    304.83416   -10541.585            0   -9633.8409    22755.581    778.82063    9.2005223    9.2005223    9.2005223            0 
   17100     290.2976   -10497.064            0   -9632.6076    9837.1493    778.65067     9.199853     9.199853     9.199853    43.346837 
   17200    292.45215   -10500.772            0    -9629.899   -5025.3295    778.74173    9.2002116    9.2002116    9.2002116    50.902684 
   17300    303.30965   -10529.347            0   -9626.1422   -14871.398    778.40019    9.1988664    9.1988664    9.1988664    46.682409 
   17400    302.45648   -10521.218            0   -9620.5538   -4920.9344    777.33003    9.1946489    9.1946489    9.1946489     43.54455 
   17500    300.06036   -10505.483            0    -9611.954   -13925.397    775.81993    9.1886909    9.1886909    9.1886909    47.070523 
   17600    301.66057   -10501.524            0   -9603.2301   -9334.3606     773.8553    9.1809281    9.1809281    9.1809281    48.855894 
   17700    305.30142   -10502.754            0   -9593.6189    10577.837    771.73433    9.1725328    9.1725328    9.1725328    44.831315 
   17800    306.83231   -10495.945            0    -9582.251    2669.1124    770.19285    9.1664216    9.1664216    9.1664216    47.733823 
   17900    299.42968   -10462.772            0    -9571.121    12420.266    769.86066    9.1651035    9.1651035    9.1651035    55.827204 
   18000    308.79049   -10485.052            0   -9565.5262    15976.677    770.81116    9.1688738    9.1688738    9.1688738    25.603675 
Loop time of 22.9159 on 16 procs for 1000 steps with 1000 atoms

Performance: 3.770 ns/day, 6.366 hours/ns, 43.638 timesteps/s
94.6% CPU use with 16 MPI tasks x no OpenMP threads

MPI task timing breakdown:
Section |  min time  |  avg time  |  max time  |%varavg| %total
---------------------------------------------------------------
Pair    | 2.4201     | 2.6701     | 2.8658     |   8.2 | 11.65
Neigh   | 0.79783    | 0.86194    | 0.91889    |   4.4 |  3.76
Comm    | 0.64897    | 0.89884    | 1.2135     |  18.5 |  3.92
Output  | 12.168     | 12.556     | 18.305     |  41.9 | 54.79
Modify  | 0.16689    | 5.9089     | 6.2963     |  61.0 | 25.78
Other   |            | 0.01986    |            |       |  0.09

Nlocal:    62.5 ave 68 max 58 min
Histogram: 2 2 0 4 1 0 3 0 1 3
Nghost:    1878.06 ave 1906 max 1847 min
Histogram: 1 2 0 1 3 2 3 2 1 1
Neighs:    0 ave 0 max 0 min
Histogram: 16 0 0 0 0 0 0 0 0 0
FullNghs:  19141.2 ave 20974 max 17701 min
Histogram: 2 2 2 3 0 2 1 1 2 1

Total # of neighbors = 306260
Ave neighs/atom = 306.26
Neighbor list builds = 1000
Dangerous builds not checked
Setting up Verlet run ...
  Unit style    : real
  Current step  : 18000
  Time step     : 1
Per MPI rank memory allocation (min/avg/max) = 4.577 | 4.578 | 4.58 Mbytes
Step Temp E_pair E_mol TotEng Press Volume Lx Ly Lz S/CPU 
   18000    308.79049   -10485.052            0   -9565.5262    15976.677    770.81116    9.1688738    9.1688738    9.1688738            0 
   18100    305.02032   -10467.895            0   -9559.5965    22052.693    772.90365    9.1771631    9.1771631    9.1771631    47.346095 
   18200    305.39366   -10464.412            0   -9555.0019    2031.1472    775.95888    9.1892395    9.1892395    9.1892395    45.018397 
   18300    313.34419   -10484.572            0   -9551.4866   -8910.6252    779.59947    9.2035882    9.2035882    9.2035882    48.393172 
   18400    296.67327   -10431.459            0   -9548.0169    2856.3428    783.47909    9.2188299    9.2188299    9.2188299    48.103453 
   18500    302.04232   -10445.516            0   -9546.0856   -19098.132    787.22215    9.2334876    9.2334876    9.2334876    47.670478 
   18600     296.1058   -10425.752            0   -9543.9996    3140.1175    790.37361    9.2457925    9.2457925    9.2457925    44.970006 
   18700    303.97413   -10448.592            0   -9543.4086   -21964.213    792.91229    9.2556811    9.2556811    9.2556811    38.223979 
   18800    295.91174   -10423.434            0   -9542.2597   -10336.714    794.55723    9.2620772    9.2620772    9.2620772    42.555235 
   18900    311.01952   -10467.243            0     -9541.08   -4332.0433    795.36684     9.265222     9.265222     9.265222    45.561679 
   19000    309.72358   -10461.519            0    -9539.215    -29453.42    795.44519    9.2655262    9.2655262    9.2655262    39.596675 
Loop time of 22.4865 on 16 procs for 1000 steps with 1000 atoms

Performance: 3.842 ns/day, 6.246 hours/ns, 44.471 timesteps/s
94.7% CPU use with 16 MPI tasks x no OpenMP threads

MPI task timing breakdown:
Section |  min time  |  avg time  |  max time  |%varavg| %total
---------------------------------------------------------------
Pair    | 2.3628     | 2.58       | 2.7931     |   8.9 | 11.47
Neigh   | 0.77804    | 0.85079    | 0.90931    |   4.7 |  3.78
Comm    | 0.66432    | 0.93695    | 1.2097     |  19.3 |  4.17
Output  | 12.273     | 12.645     | 18.004     |  38.9 | 56.23
Modify  | 0.10996    | 5.465      | 5.8375     |  59.1 | 24.30
Other   |            | 0.008472   |            |       |  0.04

Nlocal:    62.5 ave 66 max 59 min
Histogram: 1 1 2 0 5 3 0 1 2 1
Nghost:    1837.44 ave 1863 max 1814 min
Histogram: 2 1 1 2 3 1 3 0 2 1
Neighs:    0 ave 0 max 0 min
Histogram: 16 0 0 0 0 0 0 0 0 0
FullNghs:  18528.2 ave 19560 max 17506 min
Histogram: 1 2 1 2 2 2 2 1 1 2

Total # of neighbors = 296452
Ave neighs/atom = 296.452
Neighbor list builds = 1000
Dangerous builds not checked
Setting up Verlet run ...
  Unit style    : real
  Current step  : 19000
  Time step     : 1
Per MPI rank memory allocation (min/avg/max) = 4.577 | 4.579 | 4.58 Mbytes
Step Temp E_pair E_mol TotEng Press Volume Lx Ly Lz S/CPU 
   19000    309.72358   -10461.519            0    -9539.215    -29453.42    795.44519    9.2655262    9.2655262    9.2655262            0 
   19100    302.32477   -10438.009            0   -9537.7371   -13580.272     794.1623    9.2605423    9.2605423    9.2605423    47.039706 
   19200    303.93169   -10441.269            0   -9536.2119    -16887.01    791.56453     9.250434     9.250434     9.250434    46.011221 
   19300    302.01027   -10434.251            0   -9534.9155    1051.9605    787.96701    9.2363988    9.2363988    9.2363988    47.726562 
   19400    308.30478   -10453.284            0    -9535.205    24054.094    783.99933      9.22087      9.22087      9.22087    33.314837 
   19500    308.80347   -10455.236            0    -9535.672    19592.691     780.7434    9.2080876    9.2080876    9.2080876     40.03307 
   19600    306.56094   -10452.218            0   -9539.3318    10800.581    778.41112    9.1989094    9.1989094    9.1989094    40.024939 
   19700    311.89045   -10475.788            0   -9547.0315    19954.544    777.00152    9.1933534    9.1933534    9.1933534    43.540226 
   19800    302.11893   -10454.595            0   -9554.9364     13230.53    776.77301    9.1924521    9.1924521    9.1924521    35.564811 
   19900    299.31798   -10458.237            0   -9566.9189     20264.77    777.44686    9.1951095    9.1951095    9.1951095    34.536701 
   20000    294.14584   -10453.667            0   -9577.7505   -1425.2908    779.18103    9.2019413    9.2019413    9.2019413    41.988433 
Loop time of 24.7782 on 16 procs for 1000 steps with 1000 atoms

Performance: 3.487 ns/day, 6.883 hours/ns, 40.358 timesteps/s
94.6% CPU use with 16 MPI tasks x no OpenMP threads

MPI task timing breakdown:
Section |  min time  |  avg time  |  max time  |%varavg| %total
---------------------------------------------------------------
Pair    | 2.2368     | 2.5662     | 2.8216     |  10.3 | 10.36
Neigh   | 0.75826    | 0.84386    | 0.914      |   5.2 |  3.41
Comm    | 0.53685    | 0.8629     | 1.2793     |  22.8 |  3.48
Output  | 13.625     | 14.049     | 20.333     |  43.3 | 56.70
Modify  | 0.16358    | 6.4474     | 6.8721     |  63.9 | 26.02
Other   |            | 0.008545   |            |       |  0.03

Nlocal:    62.5 ave 70 max 55 min
Histogram: 1 0 2 1 5 3 1 1 1 1
Nghost:    1858.38 ave 1887 max 1836 min
Histogram: 1 3 1 3 3 1 1 1 0 2
Neighs:    0 ave 0 max 0 min
Histogram: 16 0 0 0 0 0 0 0 0 0
FullNghs:  18950.1 ave 21321 max 16591 min
Histogram: 1 0 2 2 5 2 0 2 1 1

Total # of neighbors = 303202
Ave neighs/atom = 303.202
Neighbor list builds = 1000
Dangerous builds not checked
Setting up Verlet run ...
  Unit style    : real
  Current step  : 20000
  Time step     : 1
Per MPI rank memory allocation (min/avg/max) = 4.577 | 4.579 | 4.58 Mbytes
Step Temp E_pair E_mol TotEng Press Volume Lx Ly Lz S/CPU 
   20000    294.14584   -10453.667            0   -9577.7505   -1425.2908    779.18103    9.2019413    9.2019413    9.2019413            0 
   20100    311.41354   -10518.592            0   -9591.2559    4986.7572    781.54109    9.2112225    9.2112225    9.2112225    37.109332 
   20200    292.17634   -10470.538            0   -9600.4867   -2732.2621    784.36415       9.2223       9.2223       9.2223    44.997969 
   20300    288.18943   -10465.403            0   -9607.2243   -10893.919    786.98012    9.2325412    9.2325412    9.2325412    41.065177 
   20400    283.14061    -10455.75            0   -9612.6058   -4721.0344     789.1253    9.2409224    9.2409224    9.2409224    39.174174 
   20500    288.25761   -10474.903            0   -9616.5207   -8616.1552    791.01228    9.2482822    9.2482822    9.2482822    35.702837 
   20600    296.60058   -10502.496            0   -9619.2699   -22296.185    792.12923    9.2526332    9.2526332    9.2526332    39.816236 
   20700    304.06882   -10525.938            0    -9620.473   -5326.5898    792.10649    9.2525447    9.2525447    9.2525447    49.776172 
   20800    295.58338   -10500.633            0   -9620.4358   -4835.4202    791.43755    9.2499393    9.2499393    9.2499393    42.265035 
   20900    303.80905    -10524.71            0   -9620.0184    -12763.37    789.96873    9.2442135    9.2442135    9.2442135    30.858243 
   21000    303.52042   -10523.993            0   -9620.1607    1955.1084    787.58267    9.2348969    9.2348969    9.2348969    62.197256 
Loop time of 24.4408 on 16 procs for 1000 steps with 1000 atoms

Performance: 3.535 ns/day, 6.789 hours/ns, 40.915 timesteps/s
94.5% CPU use with 16 MPI tasks x no OpenMP threads

MPI task timing breakdown:
Section |  min time  |  avg time  |  max time  |%varavg| %total
---------------------------------------------------------------
Pair    | 2.3414     | 2.5847     | 2.8224     |   7.9 | 10.58
Neigh   | 0.7901     | 0.85282    | 0.92262    |   4.5 |  3.49
Comm    | 0.55301    | 0.85889    | 1.1682     |  18.0 |  3.51
Output  | 13.923     | 14.304     | 19.963     |  38.6 | 58.52
Modify  | 0.18067    | 5.831      | 6.2134     |  60.4 | 23.86
Other   |            | 0.009471   |            |       |  0.04

Nlocal:    62.5 ave 68 max 58 min
Histogram: 1 1 1 1 3 5 2 1 0 1
Nghost:    1854.81 ave 1873 max 1840 min
Histogram: 2 1 3 1 1 3 2 1 1 1
Neighs:    0 ave 0 max 0 min
Histogram: 16 0 0 0 0 0 0 0 0 0
FullNghs:  18753.9 ave 20319 max 17322 min
Histogram: 1 1 1 2 3 4 2 1 0 1

Total # of neighbors = 300062
Ave neighs/atom = 300.062
Neighbor list builds = 1000
Dangerous builds not checked
Setting up Verlet run ...
  Unit style    : real
  Current step  : 21000
  Time step     : 1
Per MPI rank memory allocation (min/avg/max) = 4.577 | 4.579 | 4.58 Mbytes
Step Temp E_pair E_mol TotEng Press Volume Lx Ly Lz S/CPU 
   21000    303.52042   -10523.993            0   -9620.1607    1955.1084    787.58267    9.2348969    9.2348969    9.2348969            0 
   21100    304.36837   -10525.505            0   -9619.1483    562.75297    784.74953    9.2238101    9.2238101    9.2238101    41.804153 
   21200    300.58986   -10512.114            0   -9617.0085   -10315.156    782.04993    9.2132211    9.2132211    9.2132211    39.662316 
   21300    303.68642   -10520.331            0    -9616.005    7537.7346    779.35321     9.202619     9.202619     9.202619    40.480256 
   21400    305.57334   -10522.639            0   -9612.6938    14026.982     777.1577    9.1939693    9.1939693    9.1939693    48.290881 
   21500    304.18211   -10514.513            0   -9608.7105    19335.848    776.06448    9.1896563    9.1896563    9.1896563    45.632895 
   21600     304.0493   -10510.729            0   -9605.3218    4955.8194    776.17769    9.1901031    9.1901031    9.1901031     45.81967 
   21700    297.08743   -10484.924            0   -9600.2486    6394.2841    777.03022    9.1934666    9.1934666    9.1934666    50.352419 
   21800    296.31074   -10476.801            0   -9594.4385   -3762.5443    778.35083    9.1986719    9.1986719    9.1986719    41.893462 
   21900    307.17986    -10503.37            0   -9588.6405     12172.62    779.94389    9.2049433    9.2049433    9.2049433    39.312778 
   22000     299.1602   -10470.763            0   -9579.9146    4226.2259    782.02004    9.2131037    9.2131037    9.2131037    47.628841 
Loop time of 22.8447 on 16 procs for 1000 steps with 1000 atoms

Performance: 3.782 ns/day, 6.346 hours/ns, 43.774 timesteps/s
94.6% CPU use with 16 MPI tasks x no OpenMP threads

MPI task timing breakdown:
Section |  min time  |  avg time  |  max time  |%varavg| %total
---------------------------------------------------------------
Pair    | 2.3816     | 2.6172     | 2.8678     |   9.2 | 11.46
Neigh   | 0.78763    | 0.85542    | 0.92766    |   4.9 |  3.74
Comm    | 0.64294    | 0.95858    | 1.2589     |  19.9 |  4.20
Output  | 12.88      | 13.221     | 18.28      |  35.9 | 57.87
Modify  | 0.13501    | 5.1841     | 5.5242     |  57.3 | 22.69
Other   |            | 0.008554   |            |       |  0.04

Nlocal:    62.5 ave 68 max 59 min
Histogram: 2 3 2 1 2 2 2 1 0 1
Nghost:    1851.06 ave 1864 max 1839 min
Histogram: 1 1 2 2 1 2 5 1 0 1
Neighs:    0 ave 0 max 0 min
Histogram: 16 0 0 0 0 0 0 0 0 0
FullNghs:  18887.8 ave 20576 max 17590 min
Histogram: 1 3 3 1 0 3 1 3 0 1

Total # of neighbors = 302204
Ave neighs/atom = 302.204
Neighbor list builds = 1000
Dangerous builds not checked
Setting up Verlet run ...
  Unit style    : real
  Current step  : 22000
  Time step     : 1
Per MPI rank memory allocation (min/avg/max) = 4.577 | 4.579 | 4.58 Mbytes
Step Temp E_pair E_mol TotEng Press Volume Lx Ly Lz S/CPU 
   22000     299.1602   -10470.763            0   -9579.9146    4226.2259    782.02004    9.2131037    9.2131037    9.2131037            0 
   22100    303.88228   -10477.397            0   -9572.4879    3382.6371    784.48495    9.2227734    9.2227734    9.2227734    41.598425 
   22200    308.04711   -10481.815            0   -9564.5033   -6324.3051    786.83829    9.2319865    9.2319865    9.2319865    46.461278 
   22300    306.33952   -10468.008            0   -9555.7816    2782.8322    788.95208    9.2402462    9.2402462    9.2402462     51.30113 
   22400    293.40096   -10422.521            0   -9548.8227    -19126.88    790.78956    9.2474142    9.2474142    9.2474142    37.186667 
   22500    292.04531   -10411.898            0   -9542.2368    -15680.78    791.66119    9.2508105    9.2508105    9.2508105    33.423486 
   22600    316.40622   -10480.793            0   -9538.5897   -13138.633    791.35634    9.2496229    9.2496229    9.2496229     41.80242 
   22700    308.14863   -10450.793            0   -9533.1794    -12588.96    790.12643    9.2448286    9.2448286    9.2448286    43.851278 
   22800    306.11882   -10441.607            0   -9530.0377    -2060.077    788.27318     9.237595     9.237595     9.237595    59.025369 
   22900    311.13106   -10454.377            0   -9527.8822    3272.0053    786.14222    9.2292634    9.2292634    9.2292634    36.172745 
   23000     307.5595   -10442.901            0   -9527.0411    345.79639    784.22163    9.2217414    9.2217414    9.2217414     45.09185 
Loop time of 23.5356 on 16 procs for 1000 steps with 1000 atoms

Performance: 3.671 ns/day, 6.538 hours/ns, 42.489 timesteps/s
94.5% CPU use with 16 MPI tasks x no OpenMP threads

MPI task timing breakdown:
Section |  min time  |  avg time  |  max time  |%varavg| %total
---------------------------------------------------------------
Pair    | 2.3288     | 2.5508     | 2.8935     |   9.2 | 10.84
Neigh   | 0.7758     | 0.84495    | 0.93373    |   5.0 |  3.59
Comm    | 0.52783    | 0.95703    | 1.252      |  19.6 |  4.07
Output  | 12.995     | 13.378     | 19.069     |  40.2 | 56.84
Modify  | 0.10543    | 5.7968     | 6.1962     |  61.0 | 24.63
Other   |            | 0.008461   |            |       |  0.04

Nlocal:    62.5 ave 70 max 57 min
Histogram: 2 1 3 2 1 3 2 1 0 1
Nghost:    1864.56 ave 1880 max 1846 min
Histogram: 1 0 3 1 1 2 3 3 1 1
Neighs:    0 ave 0 max 0 min
Histogram: 16 0 0 0 0 0 0 0 0 0
FullNghs:  18820.2 ave 21133 max 17043 min
Histogram: 2 1 3 2 1 4 0 2 0 1

Total # of neighbors = 301124
Ave neighs/atom = 301.124
Neighbor list builds = 1000
Dangerous builds not checked
Setting up Verlet run ...
  Unit style    : real
  Current step  : 23000
  Time step     : 1
Per MPI rank memory allocation (min/avg/max) = 4.577 | 4.579 | 4.58 Mbytes
Step Temp E_pair E_mol TotEng Press Volume Lx Ly Lz S/CPU 
   23000     307.5595   -10442.901            0   -9527.0411    345.79639    784.22163    9.2217414    9.2217414    9.2217414            0 
   23100    306.04272   -10437.978            0   -9526.6347    11079.126    782.56858    9.2152574    9.2152574    9.2152574    33.839087 
   23200    299.01267   -10419.517            0    -9529.108    17459.136    781.97667    9.2129334    9.2129334    9.2129334    42.219498 
   23300      315.601   -10476.371            0   -9536.5655    5026.6278    782.36632    9.2144634    9.2144634    9.2144634    54.223911 
   23400    307.25609   -10459.011            0   -9544.0546    200.91846    783.36575    9.2183854    9.2183854    9.2183854    35.361519 
   23500    298.88298   -10448.256            0   -9558.2339    4341.1958    784.63146    9.2233475    9.2233475    9.2233475    34.614057 
   23600    309.23791   -10496.115            0    -9575.257   -9458.6156    785.64971    9.2273356    9.2273356    9.2273356    50.314267 
   23700    295.77518   -10470.888            0   -9590.1204    1888.5853    786.10141    9.2291037    9.2291037    9.2291037    52.221513 
   23800    292.82205   -10473.047            0   -9601.0728   -988.46642    786.28799    9.2298338    9.2298338    9.2298338    35.542058 
   23900    299.75266   -10501.111            0   -9608.4991   -12058.242    786.13828     9.229248     9.229248     9.229248    47.619018 
   24000    304.66281   -10520.846            0   -9613.6119    3747.0254    785.32574    9.2260672    9.2260672    9.2260672    37.246887 
Loop time of 24.3857 on 16 procs for 1000 steps with 1000 atoms

Performance: 3.543 ns/day, 6.774 hours/ns, 41.008 timesteps/s
94.5% CPU use with 16 MPI tasks x no OpenMP threads

MPI task timing breakdown:
Section |  min time  |  avg time  |  max time  |%varavg| %total
---------------------------------------------------------------
Pair    | 2.4316     | 2.6078     | 2.8414     |   7.2 | 10.69
Neigh   | 0.79825    | 0.85469    | 0.92073    |   3.9 |  3.50
Comm    | 0.59329    | 0.89532    | 1.1231     |  15.9 |  3.67
Output  | 14.371     | 14.718     | 19.886     |  34.8 | 60.36
Modify  | 0.12811    | 5.3009     | 5.6507     |  58.0 | 21.74
Other   |            | 0.008526   |            |       |  0.03

Nlocal:    62.5 ave 68 max 56 min
Histogram: 1 1 3 1 0 3 1 2 1 3
Nghost:    1848.69 ave 1870 max 1837 min
Histogram: 3 1 4 2 2 2 1 0 0 1
Neighs:    0 ave 0 max 0 min
Histogram: 16 0 0 0 0 0 0 0 0 0
FullNghs:  18791.4 ave 20395 max 16768 min
Histogram: 1 1 2 2 0 2 2 2 2 2

Total # of neighbors = 300662
Ave neighs/atom = 300.662
Neighbor list builds = 1000
Dangerous builds not checked
Setting up Verlet run ...
  Unit style    : real
  Current step  : 24000
  Time step     : 1
Per MPI rank memory allocation (min/avg/max) = 4.577 | 4.579 | 4.58 Mbytes
Step Temp E_pair E_mol TotEng Press Volume Lx Ly Lz S/CPU 
   24000    304.66281   -10520.846            0   -9613.6119    3747.0254    785.32574    9.2260672    9.2260672    9.2260672            0 
   24100    307.14654    -10530.97            0     -9616.34   -4754.5466    784.46424    9.2226922    9.2226922    9.2226922    40.717628 
   24200     289.4423   -10478.801            0   -9616.8917   -1625.5046    783.26477    9.2179893    9.2179893    9.2179893    39.823794 
   24300    306.33653   -10530.843            0   -9618.6256     5540.044    781.77277    9.2121326    9.2121326    9.2121326    35.299461 
   24400    303.18575   -10522.276            0   -9619.4402    5982.1902    780.35941    9.2065777    9.2065777    9.2065777    39.074102 
   24500    294.85724   -10496.774            0   -9618.7391    14636.161    778.83519    9.2005796    9.2005796    9.2005796    53.338855 
   24600    301.75169    -10518.01            0   -9619.4452    2681.3536    777.87975    9.1968158    9.1968158    9.1968158    42.017294 
   24700    305.66671   -10527.951            0   -9617.7274    7109.9115    777.78704    9.1964504    9.1964504    9.1964504    40.782992 
   24800    300.65388   -10513.755            0   -9618.4591    9645.1849    777.94254    9.1970632    9.1970632    9.1970632    32.646883 
   24900    304.89289   -10526.171            0   -9618.2518    3596.2786    778.60378    9.1996683    9.1996683    9.1996683    44.975319 
   25000    291.25739   -10485.905            0     -9618.59    430.62897    779.56901    9.2034683    9.2034683    9.2034683    37.271274 
Loop time of 25.0355 on 16 procs for 1000 steps with 1000 atoms

Performance: 3.451 ns/day, 6.954 hours/ns, 39.943 timesteps/s
94.5% CPU use with 16 MPI tasks x no OpenMP threads

MPI task timing breakdown:
Section |  min time  |  avg time  |  max time  |%varavg| %total
---------------------------------------------------------------
Pair    | 2.3886     | 2.612      | 2.8681     |   8.9 | 10.43
Neigh   | 0.79264    | 0.85574    | 0.92456    |   4.7 |  3.42
Comm    | 0.58646    | 0.9127     | 1.1862     |  19.5 |  3.65
Output  | 14.617     | 14.988     | 20.505     |  36.8 | 59.87
Modify  | 0.14036    | 5.6582     | 6.03       |  59.9 | 22.60
Other   |            | 0.008497   |            |       |  0.03

Nlocal:    62.5 ave 71 max 57 min
Histogram: 1 1 5 3 1 3 0 1 0 1
Nghost:    1868.94 ave 1880 max 1858 min
Histogram: 2 0 3 3 1 1 1 0 3 2
Neighs:    0 ave 0 max 0 min
Histogram: 16 0 0 0 0 0 0 0 0 0
FullNghs:  18922.6 ave 21445 max 17204 min
Histogram: 1 1 5 3 2 0 2 1 0 1

Total # of neighbors = 302762
Ave neighs/atom = 302.762
Neighbor list builds = 1000
Dangerous builds not checked
Setting up Verlet run ...
  Unit style    : real
  Current step  : 25000
  Time step     : 1
Per MPI rank memory allocation (min/avg/max) = 4.577 | 4.579 | 4.58 Mbytes
Step Temp E_pair E_mol TotEng Press Volume Lx Ly Lz S/CPU 
   25000    291.25739   -10485.905            0     -9618.59    430.62897    779.56901    9.2034683    9.2034683    9.2034683            0 
   25100    314.07569   -10556.276            0   -9621.0119    2638.6495     780.4521    9.2069422    9.2069422    9.2069422    38.324264 
   25200    304.16429   -10526.854            0   -9621.1048   -4527.8266     781.1377    9.2096374    9.2096374    9.2096374    46.732388 
   25300    302.98091   -10525.327            0   -9623.1019    7884.9393    781.69453    9.2118253    9.2118253    9.2118253    38.125707 
   25400    303.13064   -10528.264            0   -9625.5924   -9158.3148    782.08734     9.213368     9.213368     9.213368    40.056014 
   25500    293.55047    -10503.11            0   -9628.9664    1282.6243    781.67801    9.2117604    9.2117604    9.2117604    40.933043 
   25600    295.75656   -10513.888            0   -9633.1758   -11020.896    780.76054     9.208155     9.208155     9.208155     40.00013 
   25700     313.2883   -10572.616            0   -9639.6969   -5489.8682    779.37987    9.2027239    9.2027239    9.2027239    38.790049 
   25800    295.90529   -10525.765            0   -9644.6091    5006.6061     777.8765     9.196803     9.196803     9.196803    44.260245 
   25900     298.5707   -10540.132            0   -9651.0392    17005.984    776.53322    9.1915061    9.1915061    9.1915061    38.684107 
   26000    297.61847   -10542.093            0   -9655.8355    18095.052    775.91779    9.1890772    9.1890772    9.1890772    39.160109 
Loop time of 24.7876 on 16 procs for 1000 steps with 1000 atoms

Performance: 3.486 ns/day, 6.885 hours/ns, 40.343 timesteps/s
94.5% CPU use with 16 MPI tasks x no OpenMP threads

MPI task timing breakdown:
Section |  min time  |  avg time  |  max time  |%varavg| %total
---------------------------------------------------------------
Pair    | 2.358      | 2.6269     | 2.8796     |   8.9 | 10.60
Neigh   | 0.79566    | 0.85626    | 0.91835    |   4.4 |  3.45
Comm    | 0.54179    | 0.85744    | 1.1865     |  19.8 |  3.46
Output  | 14.281     | 14.659     | 20.274     |  37.9 | 59.14
Modify  | 0.15623    | 5.7792     | 6.1585     |  60.4 | 23.32
Other   |            | 0.00861    |            |       |  0.03

Nlocal:    62.5 ave 67 max 57 min
Histogram: 1 1 1 2 0 3 0 2 5 1
Nghost:    1873.31 ave 1886 max 1857 min
Histogram: 1 1 1 0 3 2 2 3 2 1
Neighs:    0 ave 0 max 0 min
Histogram: 16 0 0 0 0 0 0 0 0 0
FullNghs:  19019.5 ave 20632 max 17356 min
Histogram: 2 0 2 1 3 0 3 4 0 1

Total # of neighbors = 304312
Ave neighs/atom = 304.312
Neighbor list builds = 1000
Dangerous builds not checked
Setting up Verlet run ...
  Unit style    : real
  Current step  : 26000
  Time step     : 1
Per MPI rank memory allocation (min/avg/max) = 4.577 | 4.579 | 4.58 Mbytes
Step Temp E_pair E_mol TotEng Press Volume Lx Ly Lz S/CPU 
   26000    297.61847   -10542.093            0   -9655.8355    18095.052    775.91779    9.1890772    9.1890772    9.1890772            0 
   26100    286.89408   -10514.346            0   -9660.0248    16022.047    776.07798    9.1897096    9.1897096    9.1897096    42.959127 
   26200    289.11243   -10525.747            0   -9664.8191    9301.9619    777.12961    9.1938586    9.1938586    9.1938586    36.485119 
   26300    291.49539   -10534.753            0   -9666.7295    17004.646    778.66866    9.1999238    9.1999238    9.1999238    45.523638 
   26400    298.98567   -10557.327            0   -9666.9985    -180.3031     780.3997    9.2067362    9.2067362    9.2067362    47.499417 
   26500    296.11953   -10548.287            0   -9666.4939   -3949.6878    781.85246    9.2124456    9.2124456    9.2124456    38.621382 
   26600    287.90234   -10520.426            0   -9663.1021    -3082.083     782.9008    9.2165612    9.2165612    9.2165612    45.868606 
   26700     291.7505    -10525.83            0    -9657.047   -22415.556    783.66694    9.2195667    9.2195667    9.2195667    36.352151 
   26800    280.83149   -10484.319            0   -9648.0507   -11873.299    783.53886    9.2190644    9.2190644    9.2190644    35.574248 
   26900    298.23283   -10524.723            0   -9636.6371   -17037.041    782.69608    9.2157578    9.2157578    9.2157578    40.296803 
   27000     292.6629   -10493.495            0   -9621.9949    9124.6987    781.33175       9.2104       9.2104       9.2104    31.080244 
Loop time of 25.4009 on 16 procs for 1000 steps with 1000 atoms

Performance: 3.401 ns/day, 7.056 hours/ns, 39.369 timesteps/s
94.5% CPU use with 16 MPI tasks x no OpenMP threads

MPI task timing breakdown:
Section |  min time  |  avg time  |  max time  |%varavg| %total
---------------------------------------------------------------
Pair    | 2.3937     | 2.6181     | 2.9127     |   9.7 | 10.31
Neigh   | 0.79207    | 0.85632    | 0.93098    |   4.8 |  3.37
Comm    | 0.60563    | 0.97303    | 1.2537     |  20.4 |  3.83
Output  | 13.883     | 14.32      | 20.794     |  44.2 | 56.38
Modify  | 0.1582     | 6.6251     | 7.0658     |  64.9 | 26.08
Other   |            | 0.008541   |            |       |  0.03

Nlocal:    62.5 ave 68 max 57 min
Histogram: 1 2 2 3 2 0 1 1 1 3
Nghost:    1864.25 ave 1891 max 1843 min
Histogram: 2 3 0 3 0 2 3 1 1 1
Neighs:    0 ave 0 max 0 min
Histogram: 16 0 0 0 0 0 0 0 0 0
FullNghs:  18884 ave 20623 max 17314 min
Histogram: 1 2 1 4 2 1 0 1 1 3

Total # of neighbors = 302144
Ave neighs/atom = 302.144
Neighbor list builds = 1000
Dangerous builds not checked
Setting up Verlet run ...
  Unit style    : real
  Current step  : 27000
  Time step     : 1
Per MPI rank memory allocation (min/avg/max) = 4.577 | 4.579 | 4.58 Mbytes
Step Temp E_pair E_mol TotEng Press Volume Lx Ly Lz S/CPU 
   27000     292.6629   -10493.495            0   -9621.9949    9124.6987    781.33175       9.2104       9.2104       9.2104            0 
   27100    288.95041   -10469.017            0   -9608.5725    9619.2646    780.18717    9.2059003    9.2059003    9.2059003    45.078292 
   27200    287.61611   -10455.297            0   -9598.8257    2535.2263    779.38619    9.2027488    9.2027488    9.2027488    45.733032 
   27300    306.70343   -10504.187            0   -9590.8765   -330.15788    778.63018    9.1997723    9.1997723    9.1997723    40.414746 
   27400    293.55941   -10459.491            0   -9585.3216    15814.892    778.09575     9.197667     9.197667     9.197667    30.701514 
   27500    308.60399   -10500.658            0   -9581.6876     14633.94    777.97018    9.1971722    9.1971722    9.1971722    53.394254 
   27600     303.6752   -10482.037            0    -9577.744     -5230.38    778.46812     9.199134     9.199134     9.199134    41.850266 
   27700    298.16105   -10463.035            0   -9575.1627    3443.5863    779.52757    9.2033052    9.2033052    9.2033052    44.691985 
   27800    293.62697   -10449.451            0   -9575.0796    9103.5731    780.98564    9.2090398    9.2090398    9.2090398    33.540567 
   27900     304.1756   -10478.505            0   -9572.7224   -10188.969    782.69361    9.2157481    9.2157481    9.2157481    39.816753 
   28000    304.71086   -10477.935            0   -9570.5584    2539.2714    784.31131    9.2220929    9.2220929    9.2220929    36.693728 
Loop time of 24.8546 on 16 procs for 1000 steps with 1000 atoms

Performance: 3.476 ns/day, 6.904 hours/ns, 40.234 timesteps/s
[...]
  460700    305.13779   -11258.483            0   -10349.835   -24550.181    748.34524     9.078916     9.078916     9.078916    32.672576 
  460800    311.26627   -11266.302            0   -10339.404   -27439.326    749.01438    9.0816212    9.0816212    9.0816212     38.58627 
  460900    323.73773   -11294.469            0   -10330.433   -11569.293    748.25599    9.0785551    9.0785551    9.0785551    36.915919 
  461000    295.21955   -11199.928            0   -10320.815   -4429.7065    746.59607    9.0718369    9.0718369    9.0718369    37.291515 
  461100    305.51796   -11225.405            0   -10315.625    757.06913    744.48298    9.0632701    9.0632701    9.0632701    34.190508 
  461200    306.91608   -11225.766            0   -10311.823     5539.309    742.34082     9.054569     9.054569     9.054569    38.968741 
  461300    315.51517   -11249.164            0   -10309.614    11226.465    740.82319    9.0483944    9.0483944    9.0483944    42.517246 
  461400    306.07575   -11219.709            0   -10308.268    22073.156    740.02424    9.0451405    9.0451405    9.0451405    34.426133 
  461500    302.78381   -11209.444            0   -10307.806    13976.749    740.03123    9.0451689    9.0451689    9.0451689    33.769826 
  461600    313.50293   -11245.787            0   -10312.229    10907.309    740.67856    9.0478055    9.0478055    9.0478055    36.306919 
  461700    302.58296   -11216.175            0   -10315.135    6320.5684     741.9479    9.0529711    9.0529711    9.0529711    30.334626 
  461800    303.40563   -11225.327            0   -10321.837    -4377.977    743.91964    9.0609836    9.0609836    9.0609836    35.253584 
  461900    311.04527    -11256.21            0    -10329.97   -11125.672    745.96015    9.0692605    9.0692605    9.0692605    35.289485 
  462000    304.25447   -11246.107            0   -10340.089   -8531.0535    747.61092    9.0759455    9.0759455    9.0759455    37.542818 
  462100    296.51046   -11236.514            0   -10353.557   -17979.144    748.61447    9.0800047    9.0800047    9.0800047    42.386186 
  462200     291.6125    -11235.96            0   -10367.588   -17432.482    748.36217    9.0789845    9.0789845    9.0789845    35.575021 
  462300    304.06435   -11288.923            0   -10383.471    -17374.57    746.47138    9.0713318    9.0713318    9.0713318    27.092829 
  462400    293.10345   -11266.843            0   -10394.031   -3116.1045    743.23417    9.0581996    9.0581996    9.0581996    30.810736 
  462500    294.81075   -11278.429            0   -10400.533   -3098.6111    739.40329    9.0426099    9.0426099    9.0426099    37.080754 
  462600    304.87698   -11312.928            0   -10405.056    16951.635    735.89831     9.028299     9.028299     9.028299    41.804974 
  462700     298.6496   -11293.942            0   -10404.614    15186.518    733.22048    9.0173348    9.0173348    9.0173348    38.336233 
  462800     309.7315   -11329.454            0   -10407.126    31368.453    731.69732    9.0110864    9.0110864    9.0110864    31.704616 
  462900    300.70773   -11302.363            0   -10406.906    28188.067    732.03857    9.0124871    9.0124871    9.0124871    29.455623 
  463000    295.87891   -11288.338            0   -10407.261    38295.346    734.14643    9.0211291    9.0211291    9.0211291    41.896908 
  463100    288.63246   -11268.028            0    -10408.53   -40.474361    737.88784    9.0364278    9.0364278    9.0364278    35.160181 
  463200    293.22416   -11281.274            0   -10408.102    4599.5193    742.71328     9.056083     9.056083     9.056083    32.213385 
  463300    306.28334   -11318.579            0   -10406.519   -14590.057    747.68508    9.0762456    9.0762456    9.0762456    42.496361 
  463400    298.94261   -11290.968            0   -10400.768   -31361.901    751.95508    9.0934908    9.0934908    9.0934908    44.104629 
  463500    296.36821   -11276.045            0   -10393.511   -27974.655    754.32888    9.1030497    9.1030497    9.1030497    35.051732 
  463600    275.01989   -11203.031            0   -10384.069   -45114.993      754.278     9.102845     9.102845     9.102845    32.625243 
  463700    287.81372   -11232.653            0   -10375.593   -17793.277    751.68392    9.0923976    9.0923976    9.0923976    30.607326 
  463800    293.48137   -11238.783            0   -10364.846   -10595.646    747.57047    9.0757818    9.0757818    9.0757818    40.015998 
  463900    284.31341   -11198.724            0   -10352.087    8027.3699    742.73768    9.0561822    9.0561822    9.0561822    36.603593 
  464000    305.80657   -11252.548            0   -10341.908     18022.64    738.45736    9.0387521    9.0387521    9.0387521     38.74136 
  464100    312.23825   -11263.808            0   -10334.015    31164.832    735.34229    9.0260246    9.0260246    9.0260246    34.940461 
  464200    311.86303   -11258.314            0   -10329.639    20863.268    734.11161    9.0209864    9.0209864    9.0209864    29.591105 
  464300    318.00872   -11275.095            0    -10328.12    32275.086    734.37147    9.0220508    9.0220508    9.0220508    34.740641 
  464400    304.59228   -11236.628            0   -10329.604    36431.525    736.39171    9.0303163    9.0303163    9.0303163    38.581341 
  464500    308.48175   -11252.439            0   -10333.833    7828.4713    740.16296    9.0457056    9.0457056    9.0457056    28.549439 
  464600    311.82692    -11265.65            0   -10337.083   -9050.4908    744.52182    9.0634277    9.0634277    9.0634277    35.886255 
  464700    303.97581   -11244.476            0   -10339.288   -18739.269    748.35489    9.0789551    9.0789551    9.0789551    42.612217 
  464800    291.36192   -11209.211            0   -10341.585   -32257.497    750.94824    9.0894304    9.0894304    9.0894304    37.881633 
  464900    290.04178   -11207.106            0   -10343.411   -29776.703    751.36591    9.0911152    9.0911152    9.0911152    35.921372 
  465000    297.17223   -11232.806            0   -10347.878   -38340.267    749.70573    9.0844145    9.0844145    9.0844145    40.549541 
  465100    299.50862   -11243.878            0   -10351.993   -1306.4849     746.5987    9.0718476    9.0718476    9.0718476    42.177934 
  465200    289.35612   -11214.811            0   -10353.158   -2204.2955    742.94281    9.0570158    9.0570158    9.0570158    32.093095 
  465300    300.00249    -11249.72            0   -10356.364    7400.0639     739.4637    9.0428561    9.0428561    9.0428561    28.031771 
  465400    305.02628   -11267.196            0    -10358.88    15788.912    736.89159    9.0323592    9.0323592    9.0323592    29.285788 
  465500    308.54038   -11280.787            0   -10362.007    24568.469    735.63567    9.0272249    9.0272249    9.0272249    39.949369 
  465600    300.51433   -11262.562            0   -10367.682    4616.5318    735.55058    9.0268768    9.0268768    9.0268768    29.405614 
  465700    303.39144   -11281.944            0   -10378.497   -3044.3868    736.30809    9.0299745    9.0299745    9.0299745    34.085041 
  465800    298.76144   -11283.515            0   -10393.855    10149.533    737.55501     9.035069     9.035069     9.035069    33.229935 
  465900    297.92812   -11296.449            0    -10409.27   -9399.7795    739.23342    9.0419173    9.0419173    9.0419173    42.754443 
  466000    298.79863   -11312.451            0    -10422.68    6391.7351    740.56811    9.0473558    9.0473558    9.0473558    32.474494 
  466100    292.98053   -11305.682            0   -10433.236   -15252.955    741.61936    9.0516347    9.0516347    9.0516347    32.616328 
  466200    282.74705    -11281.13            0   -10439.157   -1684.0789    742.13013    9.0537123    9.0537123    9.0537123    33.497285 
  466300    289.79779   -11304.232            0   -10441.264   -11427.559    741.92433    9.0528753    9.0528753    9.0528753    39.498186 
  466400    290.24958   -11306.217            0   -10441.904    7483.6218    741.35005    9.0505389    9.0505389    9.0505389    32.953912 
  466500    285.34962   -11288.644            0   -10438.922    8509.9874    740.90633    9.0487329    9.0487329    9.0487329    40.687808 
  466600    289.14625   -11296.848            0    -10435.82    6523.3605    740.40979     9.046711     9.046711     9.046711    40.791285 
  466700    288.24105   -11288.604            0   -10430.271   -760.07582    740.19928    9.0458536    9.0458536    9.0458536    27.246591 
  466800    298.48967    -11310.14            0   -10421.289    4750.1604    740.15455    9.0456714    9.0456714    9.0456714    43.510821 
  466900    288.23513   -11271.871            0   -10413.556    6894.1911    740.11703    9.0455185    9.0455185    9.0455185    35.008447 
  467000    297.82168   -11291.685            0   -10404.823   -2079.2658    740.04065    9.0452073    9.0452073    9.0452073    33.448428 
  467100    299.83252   -11288.711            0   -10395.861    5028.0615    740.09864    9.0454436    9.0454436    9.0454436    34.166238 
  467200    301.12182   -11284.247            0   -10387.558    4273.1751    740.61854    9.0475612    9.0475612    9.0475612    41.719221 
  467300    298.60411   -11270.584            0   -10381.391      17357.7    741.54538    9.0513337    9.0513337    9.0513337       22.158 
  467400    306.57302   -11289.809            0   -10376.887   -7598.7021     742.8174    9.0565062    9.0565062    9.0565062    32.937598 
  467500    305.30498   -11280.952            0   -10371.806    17041.758    743.76925    9.0603729    9.0603729    9.0603729    39.383736 
  467600    303.72977   -11271.886            0    -10367.43   -18587.461    744.83223    9.0646872    9.0646872    9.0646872    27.423939 
  467700    299.34334   -11254.054            0   -10362.661   -10522.253    745.38559    9.0669314    9.0669314    9.0669314    39.510442 
  467800    309.43223   -11282.531            0   -10361.095     2637.881    745.42088    9.0670745    9.0670745    9.0670745    27.682658 
  467900    289.19836   -11218.162            0   -10356.979   -3420.4594    745.13943    9.0659332    9.0659332    9.0659332     30.63002 
  468000    288.05701   -11213.751            0   -10355.967   -3108.1184    744.39534    9.0629145    9.0629145    9.0629145    31.384793 
  468100    300.35927   -11249.079            0    -10354.66    7087.2372    743.33705    9.0586176    9.0586176    9.0586176    39.339164 
  468200    292.08147   -11222.093            0   -10352.325    5956.8733      742.175    9.0538947    9.0538947    9.0538947    34.402648 
  468300    305.47116   -11262.495            0   -10352.854     8095.644    741.00461     9.049133     9.049133     9.049133    29.455181 
  468400    299.79829   -11243.034            0   -10350.286    15521.776    740.28137     9.046188     9.046188     9.046188    32.243492 
  468500    283.35182   -11191.885            0   -10348.112    -2308.952    740.39032    9.0466317    9.0466317    9.0466317    33.555179 
  468600    297.49975   -11231.022            0   -10345.119    17371.123    740.91035    9.0487492    9.0487492    9.0487492    39.025311 
  468700    300.74445   -11237.727            0   -10342.161    11553.169    742.20224    9.0540055    9.0540055    9.0540055    35.446807 
  468800    305.76166   -11246.835            0   -10336.329    4170.1507    743.80271    9.0605088    9.0605088    9.0605088     29.33521 
  468900    309.64998   -11249.096            0   -10327.011   -10294.816    745.45879    9.0672282    9.0672282    9.0672282    31.029265 
  469000    300.32705   -11209.812            0   -10315.489     176.8702    746.82142    9.0727495    9.0727495    9.0727495    39.448909 
  469100    302.88226   -11203.637            0   -10301.705   -2510.3058    747.76499    9.0765689    9.0765689    9.0765689    33.041556 
  469200    310.99618   -11213.753            0   -10287.659   -16725.271    748.19386    9.0783038    9.0783038    9.0783038    40.112572 
  469300    303.76904   -11178.538            0   -10273.966   -977.00186    747.97796    9.0774305    9.0774305    9.0774305    23.636931 
  469400    308.14916   -11183.627            0   -10266.011   -16390.221    747.28535    9.0746278    9.0746278    9.0746278    40.294299 
  469500    314.35592   -11198.138            0    -10262.04   -5324.1863    746.33104    9.0707633    9.0707633    9.0707633    35.806364 
  469600     315.4397   -11201.753            0   -10262.427   -7928.1799    745.11893    9.0658501    9.0658501    9.0658501    35.950439 
  469700    317.73752   -11212.606            0   -10266.438    3144.4152     743.7471     9.060283     9.060283     9.060283    40.949814 
  469800    319.89596   -11224.813            0   -10272.218    4449.9229    742.84069    9.0566009    9.0566009    9.0566009    28.917322 
  469900    294.46188    -11155.83            0   -10278.973    13344.053    742.77948    9.0563521    9.0563521    9.0563521    38.493421 
  470000    311.00799   -11216.957            0   -10290.828    17778.386    743.46063    9.0591196    9.0591196    9.0591196    29.515787 
  470100    306.02148   -11212.114            0   -10300.834    4302.9617    744.89711    9.0649503    9.0649503    9.0649503    36.897787 
  470200    310.38234   -11235.033            0   -10310.767   -11037.572    746.30692    9.0706656    9.0706656    9.0706656     37.01753 
  470300    301.47714   -11214.808            0    -10317.06   -5818.6737    747.17435    9.0741785    9.0741785    9.0741785    31.754031 
  470400    297.75652    -11209.97            0   -10323.302   -4959.4899    747.47194    9.0753831    9.0753831    9.0753831    34.999417 
  470500    303.61479   -11230.303            0    -10326.19    -17513.62    747.19177     9.074249     9.074249     9.074249    43.682833 
  470600    293.22834   -11204.144            0    -10330.96    -3707.033    746.41265    9.0710939    9.0710939    9.0710939    39.400625 
  470700     303.6729    -11237.67            0   -10333.384    -17011.16    745.48587     9.067338     9.067338     9.067338      33.4972 
  470800    288.68727   -11193.672            0   -10334.011    9687.0581    744.40227    9.0629426    9.0629426    9.0629426    40.809363 
  470900    307.39177   -11252.813            0   -10337.453    3236.3919     743.3454    9.0586515    9.0586515    9.0586515    38.399866 
  471000    305.36198   -11250.278            0   -10340.962    12986.852    742.42861    9.0549259    9.0549259    9.0549259    32.161042 
  471100    300.30954   -11238.264            0   -10343.994    4588.7943    742.09228    9.0535583    9.0535583    9.0535583    39.409547 
  471200    304.06428    -11254.98            0   -10349.528    10946.502    742.10507    9.0536104    9.0536104    9.0536104    37.063432 
  471300    305.90814   -11266.068            0   -10355.126    4147.4171    742.22326     9.054091     9.054091     9.054091    36.144986 
  471400    305.46783   -11270.317            0   -10360.686   -95.026889    742.41478    9.0548697    9.0548697    9.0548697    25.451941 
  471500    294.08536   -11243.714            0   -10367.978    3193.4372    742.68869    9.0559831    9.0559831    9.0559831    42.381568 
  471600    308.18757    -11293.86            0    -10376.13   -15462.874    743.31246    9.0585177    9.0585177    9.0585177    34.331014 
  471700    301.74109   -11282.336            0   -10383.802    96.948889     743.9267    9.0610122    9.0610122    9.0610122    26.231974 
  471800    301.68362   -11288.926            0   -10390.563   -15858.431     744.2952    9.0625081    9.0625081    9.0625081    39.079667 
  471900    296.28381   -11279.351            0   -10397.069   -3973.3099    743.71924    9.0601699    9.0601699    9.0601699    25.673993 
  472000     291.7528   -11272.045            0   -10403.255   -9376.4416     742.5018    9.0552234    9.0552234    9.0552234    31.877197 
  472100    286.19309   -11260.664            0    -10408.43    3837.7375    741.04975    9.0493167    9.0493167    9.0493167    33.190198 
  472200    299.85309   -11307.536            0   -10414.625    -2652.259    739.70855    9.0438541    9.0438541    9.0438541    34.105624 
  472300    292.68412   -11291.569            0   -10420.006    11643.388    738.98549    9.0409064    9.0409064    9.0409064    40.270362 
  472400    295.44431   -11305.226            0   -10425.444    16762.667    738.82703    9.0402601    9.0402601    9.0402601    33.328022 
  472500    299.05976   -11322.048            0   -10431.499    2584.0522    738.92387     9.040655     9.040655     9.040655    38.972284 
  472600    288.46099    -11296.34            0   -10437.353    -6007.494    739.19929    9.0417782    9.0417782    9.0417782    35.081701 
  472700    289.46633   -11305.614            0   -10443.632     385.5377    739.42845    9.0427124    9.0427124    9.0427124    35.250655 
  472800    277.11047   -11274.736            0   -10449.548   -3988.7895    739.87883     9.044548     9.044548     9.044548    33.168824 
  472900    292.81135   -11331.055            0   -10459.113    5270.1307    740.28052    9.0461845    9.0461845    9.0461845     37.35359 
  473000     288.7981   -11327.594            0   -10467.602   -3932.7879    740.96506     9.048972     9.048972     9.048972    40.528538 
  473100    286.36724   -11326.587            0   -10473.834    3299.6873    741.72742    9.0520743    9.0520743    9.0520743    36.776248 
  473200    295.08111   -11357.298            0   -10478.597   -3246.5142    742.44943    9.0550105    9.0550105    9.0550105    31.202752 
  473300    279.33904   -11311.554            0    -10479.73    -3007.692    743.19001    9.0580203    9.0580203    9.0580203    40.263409 
  473400    286.65136   -11331.729            0    -10478.13   -7856.1142    743.74067    9.0602569    9.0602569    9.0602569    35.460065 
  473500    291.79584   -11340.937            0   -10472.019   -7842.9265    743.51458    9.0593387    9.0593387    9.0593387    29.516865 
  473600    281.30678   -11299.103            0    -10461.42   -2460.0542    742.77079    9.0563168    9.0563168    9.0563168    33.007084 
  473700    295.00184   -11327.033            0   -10448.568   -7997.2486    741.66717    9.0518292    9.0518292    9.0518292    36.708692 
  473800    288.53392   -11292.732            0   -10433.527    10741.849    740.09786    9.0454404    9.0454404    9.0454404    35.225446 
  473900    298.44271   -11310.841            0   -10422.129   -6071.8803    738.89266    9.0405277    9.0405277    9.0405277    24.054366 
  474000    308.43175   -11328.497            0   -10410.039    12756.747    738.39706    9.0385061    9.0385061    9.0385061    26.194296 
Loop time of 2911.16 on 16 procs for 100000 steps with 1000 atoms

Performance: 2.968 ns/day, 8.087 hours/ns, 34.351 timesteps/s
94.4% CPU use with 16 MPI tasks x no OpenMP threads

MPI task timing breakdown:
Section |  min time  |  avg time  |  max time  |%varavg| %total
---------------------------------------------------------------
Pair    | 243.84     | 265.39     | 284.23     |  73.2 |  9.12
Neigh   | 79.788     | 88.175     | 94.796     |  41.0 |  3.03
Comm    | 58.943     | 83.612     | 113.6      | 170.8 |  2.87
Output  | 1676.4     | 1725.8     | 2458.2     | 455.2 | 59.28
Modify  | 15.194     | 747.33     | 796.66     | 691.5 | 25.67
Other   |            | 0.8702     |            |       |  0.03

Nlocal:    62.5 ave 67 max 56 min
Histogram: 1 2 1 1 2 1 1 0 3 4
Nghost:    1922.56 ave 1945 max 1909 min
Histogram: 3 2 2 3 1 2 1 1 0 1
Neighs:    0 ave 0 max 0 min
Histogram: 16 0 0 0 0 0 0 0 0 0
FullNghs:  20000.5 ave 21668 max 17791 min
Histogram: 1 2 0 2 2 1 1 3 1 3

Total # of neighbors = 320008
Ave neighs/atom = 320.008
Neighbor list builds = 100000
Dangerous builds not checked
Total wall time: 3:28:13
