LAMMPS (16 Mar 2018)
Reading data file ...
  orthogonal box = (-4.71663 -4.71663 -4.71663) to (4.71663 4.71663 4.71663)
  2 by 2 by 4 MPI processor grid
  reading atoms ...
  1000 atoms
Reading potential file /home/fs01/ajm529/lammps-16Mar18/potentials/sw_potentials/AG/eps2.23.sw with DATE: 2008-01-29
Neighbor list info ...
  update every 1 steps, delay 0 steps, check no
  max neighbors/atom: 2000, page size: 100000
  master list distance cutoff = 3.836
  ghost atom cutoff = 3.836
  binsize = 1.918, bins = 5 5 5
  1 neighbor lists, perpetual/occasional/extra = 1 0 0
  (1) pair sw, perpetual
      attributes: full, newton on
      pair build: full/bin/atomonly
      stencil: full/bin/3d
      bin: standard
Setting up Verlet run ...
  Unit style    : real
  Current step  : 0
  Time step     : 1
Per MPI rank memory allocation (min/avg/max) = 3.518 | 3.519 | 3.521 Mbytes
Step Temp E_pair E_mol TotEng Press Volume Lx Ly Lz S/CPU 
       0          300   -10114.615            0    -9221.266   -26691.965    839.43189    9.4332604    9.4332604    9.4332604            0 
     100    322.08774   -10185.733            0   -9226.6103   -38387.309    837.62865    9.4265008    9.4265008    9.4265008    70.051129 
     200    322.49848   -10201.526            0   -9241.1805   -36869.587     832.2877    9.4064227    9.4064227    9.4064227    76.401742 
     300    337.65039   -10270.737            0   -9265.2721    -28239.43    823.96901    9.3749788    9.3749788    9.3749788    70.365544 
     400    327.86679   -10266.204            0   -9289.8731   -27780.639    813.53488     9.335238     9.335238     9.335238    53.774196 
     500    324.81941   -10277.539            0   -9310.2821   -1094.7046    802.67181    9.2935007    9.2935007    9.2935007    67.453697 
     600    336.43132   -10329.964            0   -9328.1287    8597.2667    792.80385    9.2552591    9.2552591    9.2552591    67.826841 
     700    337.19649   -10348.525            0   -9344.4118    24555.368    785.16827    9.2254504    9.2254504    9.2254504    51.162949 
     800    324.16553     -10326.1            0   -9360.7907    41956.714    780.44264     9.206905     9.206905     9.206905    70.174728 
     900     330.1599   -10364.217            0   -9381.0572    21939.766    778.39158    9.1988325    9.1988325    9.1988325    55.312901 
    1000    339.46279   -10412.893            0   -9402.0312    16729.144    777.98126    9.1972158    9.1972158    9.1972158     72.07343 
Loop time of 15.549 on 16 procs for 1000 steps with 1000 atoms

Performance: 5.557 ns/day, 4.319 hours/ns, 64.313 timesteps/s
94.8% CPU use with 16 MPI tasks x no OpenMP threads

MPI task timing breakdown:
Section |  min time  |  avg time  |  max time  |%varavg| %total
---------------------------------------------------------------
Pair    | 1.515      | 1.6626     | 1.9514     |   7.7 | 10.69
Neigh   | 0.65405    | 0.70274    | 0.79446    |   3.6 |  4.52
Comm    | 0.72139    | 1.1017     | 1.2827     |  12.0 |  7.09
Output  | 7.899      | 8.162      | 12.041     |  35.1 | 52.49
Modify  | 0.031493   | 3.9111     | 4.1743     |  50.7 | 25.15
Other   |            | 0.008829   |            |       |  0.06

Nlocal:    62.5 ave 68 max 57 min
Histogram: 1 1 2 1 2 3 3 2 0 1
Nghost:    1872.75 ave 1889 max 1850 min
Histogram: 1 0 3 0 3 1 2 0 3 3
Neighs:    0 ave 0 max 0 min
Histogram: 16 0 0 0 0 0 0 0 0 0
FullNghs:  18965.1 ave 20869 max 17388 min
Histogram: 1 1 2 2 3 3 2 1 0 1

Total # of neighbors = 303442
Ave neighs/atom = 303.442
Neighbor list builds = 1000
Dangerous builds not checked
Setting up Verlet run ...
  Unit style    : real
  Current step  : 1000
  Time step     : 1
Per MPI rank memory allocation (min/avg/max) = 3.52 | 4.31 | 4.579 Mbytes
Step Temp E_pair E_mol TotEng Press Volume Lx Ly Lz S/CPU 
    1000    339.46279   -10412.893            0   -9402.0312    16729.144    777.98126    9.1972158    9.1972158    9.1972158            0 
    1100    318.69575   -10371.683            0   -9422.6613    23497.191    778.87037    9.2007182    9.2007182    9.2007182     69.75437 
    1200    320.47136   -10398.041            0    -9443.732    8709.4147     780.5779    9.2074369    9.2074369    9.2074369    55.470036 
    1300    323.86409   -10427.952            0     -9463.54   -2765.3876    782.78553    9.2161089    9.2161089    9.2161089    74.459304 
    1400    314.87319   -10421.404            0   -9483.7655   -12319.737    784.66519    9.2234797    9.2234797    9.2234797    68.183878 
    1500    314.86163   -10439.018            0   -9501.4134   -4482.4933    785.93573    9.2284552    9.2284552    9.2284552     56.23338 
    1600    317.00972    -10464.22            0   -9520.2193    2605.1778    786.88958    9.2321871    9.2321871    9.2321871    65.792446 
    1700    306.08415   -10447.172            0   -9535.7053    -4253.158    788.04958    9.2367214    9.2367214    9.2367214    64.865774 
    1800    301.91275    -10449.18            0   -9550.1349   -6227.9944     789.0431    9.2406015    9.2406015    9.2406015    53.377603 
    1900    305.74801   -10473.299            0   -9562.8332   -9021.1804    789.08687    9.2407724    9.2407724    9.2407724    39.388325 
    2000    312.52635   -10505.545            0   -9574.8953   -17164.039    788.50764    9.2385107    9.2385107    9.2385107    53.223862 
Loop time of 17.177 on 16 procs for 1000 steps with 1000 atoms

Performance: 5.030 ns/day, 4.771 hours/ns, 58.217 timesteps/s
94.7% CPU use with 16 MPI tasks x no OpenMP threads

MPI task timing breakdown:
Section |  min time  |  avg time  |  max time  |%varavg| %total
---------------------------------------------------------------
Pair    | 1.6289     | 1.7138     | 1.8621     |   4.8 |  9.98
Neigh   | 0.6726     | 0.69834    | 0.74667    |   2.5 |  4.07
Comm    | 0.95207    | 1.1483     | 1.2548     |   7.4 |  6.69
Output  | 9.1883     | 9.4663     | 13.577     |  34.5 | 55.11
Modify  | 0.030023   | 4.1414     | 4.4199     |  52.2 | 24.11
Other   |            | 0.008836   |            |       |  0.05

Nlocal:    62.5 ave 69 max 55 min
Histogram: 2 0 1 0 3 3 3 2 0 2
Nghost:    1852.19 ave 1885 max 1827 min
Histogram: 1 2 2 4 1 2 1 1 1 1
Neighs:    0 ave 0 max 0 min
Histogram: 16 0 0 0 0 0 0 0 0 0
FullNghs:  18710.4 ave 20769 max 16484 min
Histogram: 2 0 1 1 3 3 3 0 2 1

Total # of neighbors = 299366
Ave neighs/atom = 299.366
Neighbor list builds = 1000
Dangerous builds not checked
Setting up Verlet run ...
  Unit style    : real
  Current step  : 2000
  Time step     : 1
Per MPI rank memory allocation (min/avg/max) = 4.577 | 4.579 | 4.58 Mbytes
Step Temp E_pair E_mol TotEng Press Volume Lx Ly Lz S/CPU 
    2000    312.52635   -10505.545            0   -9574.8953   -17164.039    788.50764    9.2385107    9.2385107    9.2385107            0 
    2100    303.06401   -10486.797            0   -9584.3246   -8985.6295    787.33022    9.2339101    9.2339101    9.2339101    60.828595 
    2200    294.21518    -10471.59            0   -9595.4671   -8448.6634    785.98746    9.2286577    9.2286577    9.2286577    63.356598 
    2300    302.54263   -10506.483            0   -9605.5623   -10136.796    784.48975    9.2227922    9.2227922    9.2227922    54.572525 
    2400    305.07271   -10522.334            0   -9613.8799    226.85744    782.70557    9.2157951    9.2157951    9.2157951    64.553004 
    2500    303.99744   -10526.086            0   -9620.8332    837.21027    780.99584    9.2090799    9.2090799    9.2090799    60.898456 
    2600     292.9846   -10500.992            0   -9628.5344    -2345.913    779.60019     9.203591     9.203591     9.203591    57.057964 
    2700    296.32739   -10516.618            0   -9634.2056    5046.7617    778.77336    9.2003362    9.2003362    9.2003362    67.595781 
    2800    297.61423   -10526.395            0   -9640.1506    2081.1183    778.33294    9.1986015    9.1986015    9.1986015    59.820758 
    2900    301.50819   -10542.755            0   -9644.9153    5330.0781    778.21125    9.1981221    9.1981221    9.1981221    57.776118 
    3000    306.49456   -10561.241            0   -9648.5527    15553.961    778.43236    9.1989931    9.1989931    9.1989931    70.429057 
Loop time of 16.3003 on 16 procs for 1000 steps with 1000 atoms

Performance: 5.301 ns/day, 4.528 hours/ns, 61.348 timesteps/s
94.7% CPU use with 16 MPI tasks x no OpenMP threads

MPI task timing breakdown:
Section |  min time  |  avg time  |  max time  |%varavg| %total
---------------------------------------------------------------
Pair    | 1.669      | 1.7384     | 1.9449     |   5.0 | 10.66
Neigh   | 0.68383    | 0.70631    | 0.77257    |   2.5 |  4.33
Comm    | 0.85129    | 1.1239     | 1.215      |   7.8 |  6.89
Output  | 8.4293     | 8.6987     | 12.678     |  34.8 | 53.37
Modify  | 0.0447     | 4.0242     | 4.294      |  51.2 | 24.69
Other   |            | 0.008858   |            |       |  0.05

Nlocal:    62.5 ave 68 max 57 min
Histogram: 1 2 2 1 2 1 2 3 1 1
Nghost:    1866.62 ave 1894 max 1851 min
Histogram: 3 1 1 6 2 1 0 1 0 1
Neighs:    0 ave 0 max 0 min
Histogram: 16 0 0 0 0 0 0 0 0 0
FullNghs:  18965.2 ave 20718 max 17269 min
Histogram: 1 2 2 2 1 1 2 4 0 1

Total # of neighbors = 303444
Ave neighs/atom = 303.444
Neighbor list builds = 1000
Dangerous builds not checked
Setting up Verlet run ...
  Unit style    : real
  Current step  : 3000
  Time step     : 1
Per MPI rank memory allocation (min/avg/max) = 4.577 | 4.579 | 4.58 Mbytes
Step Temp E_pair E_mol TotEng Press Volume Lx Ly Lz S/CPU 
    3000    306.49456   -10561.241            0   -9648.5527    15553.961    778.43236    9.1989931    9.1989931    9.1989931            0 
    3100    300.16058   -10544.236            0   -9650.4089    15738.491    779.21355    9.2020693    9.2020693    9.2020693    55.988699 
    3200    297.07501   -10537.184            0   -9652.5452    5725.5176    780.67412    9.2078152    9.2078152    9.2078152    73.800767 
    3300    298.74195   -10543.019            0    -9653.417     4340.898    782.55116     9.215189     9.215189     9.215189    70.314395 
    3400    302.29012   -10554.133            0   -9653.9651    2956.5964    784.49572    9.2228156    9.2228156    9.2228156    50.258241 
    3500    298.20743   -10541.131            0   -9653.1197   -24266.811     786.5425    9.2308295    9.2308295    9.2308295    69.008525 
    3600    293.50464   -10524.551            0   -9650.5441   -1319.9281    788.15971    9.2371517    9.2371517    9.2371517    76.270423 
    3700    299.95669   -10539.304            0   -9646.0844   -19254.843    788.93015    9.2401606    9.2401606    9.2401606    56.935728 
    3800    296.93696   -10524.081            0   -9639.8536   -14790.346    788.63352    9.2390024    9.2390024    9.2390024     77.67791 
    3900    295.23753   -10510.967            0   -9631.7997   -21851.009    787.12799    9.2331194    9.2331194    9.2331194    75.421551 
    4000    292.67981   -10493.513            0   -9621.9622   -11667.199    784.47542    9.2227361    9.2227361    9.2227361    54.640979 
Loop time of 15.513 on 16 procs for 1000 steps with 1000 atoms

Performance: 5.570 ns/day, 4.309 hours/ns, 64.462 timesteps/s
94.8% CPU use with 16 MPI tasks x no OpenMP threads

MPI task timing breakdown:
Section |  min time  |  avg time  |  max time  |%varavg| %total
---------------------------------------------------------------
Pair    | 1.5611     | 1.733      | 1.8896     |   6.5 | 11.17
Neigh   | 0.67743    | 0.70704    | 0.76601    |   3.0 |  4.56
Comm    | 0.91487    | 1.1306     | 1.3189     |  10.2 |  7.29
Output  | 7.9873     | 8.2359     | 11.902     |  33.0 | 53.09
Modify  | 0.030738   | 3.6977     | 3.9464     |  49.2 | 23.84
Other   |            | 0.008837   |            |       |  0.06

Nlocal:    62.5 ave 66 max 58 min
Histogram: 1 3 0 2 0 1 2 3 1 3
Nghost:    1856.19 ave 1882 max 1832 min
Histogram: 1 2 1 2 3 1 1 2 2 1
Neighs:    0 ave 0 max 0 min
Histogram: 16 0 0 0 0 0 0 0 0 0
FullNghs:  18800.2 ave 20202 max 17335 min
Histogram: 2 2 0 1 2 2 2 2 2 1

Total # of neighbors = 300804
Ave neighs/atom = 300.804
Neighbor list builds = 1000
Dangerous builds not checked
Setting up Verlet run ...
  Unit style    : real
  Current step  : 4000
  Time step     : 1
Per MPI rank memory allocation (min/avg/max) = 4.577 | 4.579 | 4.58 Mbytes
Step Temp E_pair E_mol TotEng Press Volume Lx Ly Lz S/CPU 
    4000    292.67981   -10493.513            0   -9621.9622   -11667.199    784.47542    9.2227361    9.2227361    9.2227361            0 
    4100    297.66963   -10499.203            0   -9612.7933   -6543.6701    781.27661    9.2101833    9.2101833    9.2101833    70.316833 
    4200    303.03425   -10506.196            0   -9603.8117    11661.624    778.42629    9.1989692    9.1989692    9.1989692    56.153543 
    4300    296.33837   -10477.474            0   -9595.0287    18266.124    776.60624    9.1917942    9.1917942    9.1917942    58.844336 
    4400    298.12536   -10475.907            0   -9588.1402    15669.483    775.87808    9.1889205    9.1889205    9.1889205    62.145007 
    4500    305.96885   -10494.504            0   -9583.3814    24708.351    776.23414    9.1903259    9.1903259    9.1903259    57.689636 
    4600    301.64308   -10478.229            0   -9579.9871    6589.1498    777.69467    9.1960863    9.1960863    9.1960863    61.233699 
    4700      304.987   -10485.868            0   -9577.6684    10792.748    780.11485    9.2056158    9.2056158    9.2056158    65.400676 
    4800    315.97852   -10516.505            0   -9575.5753    14761.593    783.58269    9.2192362    9.2192362    9.2192362    55.553682 
    4900    306.43934   -10486.792            0   -9574.2675   -11378.892    787.87686    9.2360466    9.2360466    9.2360466    54.536784 
    5000    302.05359    -10472.85            0   -9573.3861   -7591.6008    792.10428    9.2525361    9.2525361    9.2525361    61.027542 
Loop time of 16.6794 on 16 procs for 1000 steps with 1000 atoms

Performance: 5.180 ns/day, 4.633 hours/ns, 59.954 timesteps/s
94.8% CPU use with 16 MPI tasks x no OpenMP threads

MPI task timing breakdown:
Section |  min time  |  avg time  |  max time  |%varavg| %total
---------------------------------------------------------------
Pair    | 1.6475     | 1.7521     | 1.9118     |   5.2 | 10.50
Neigh   | 0.6695     | 0.70739    | 0.7604     |   2.6 |  4.24
Comm    | 0.9535     | 1.1666     | 1.3042     |   7.7 |  6.99
Output  | 8.8022     | 9.069      | 13.009     |  33.8 | 54.37
Modify  | 0.035327   | 3.9754     | 4.2427     |  51.0 | 23.83
Other   |            | 0.008869   |            |       |  0.05

Nlocal:    62.5 ave 68 max 57 min
Histogram: 3 1 2 1 0 0 4 1 3 1
Nghost:    1845.62 ave 1861 max 1831 min
Histogram: 1 2 1 2 2 2 2 1 1 2
Neighs:    0 ave 0 max 0 min
Histogram: 16 0 0 0 0 0 0 0 0 0
FullNghs:  18633.6 ave 20574 max 17038 min
Histogram: 4 0 2 1 0 3 2 2 1 1

Total # of neighbors = 298138
Ave neighs/atom = 298.138
Neighbor list builds = 1000
Dangerous builds not checked
Setting up Verlet run ...
  Unit style    : real
  Current step  : 5000
  Time step     : 1
Per MPI rank memory allocation (min/avg/max) = 4.577 | 4.579 | 4.58 Mbytes
Step Temp E_pair E_mol TotEng Press Volume Lx Ly Lz S/CPU 
    5000    302.05359    -10472.85            0   -9573.3861   -7591.6008    792.10428    9.2525361    9.2525361    9.2525361            0 
    5100    299.70612   -10464.981            0   -9572.5074   -8111.2088    795.42626    9.2654527    9.2654527    9.2654527    47.826734 
    5200    296.03849   -10452.541            0   -9570.9886   -7572.0111    797.54308    9.2736646    9.2736646    9.2736646    65.801496 
    5300    302.16001   -10471.016            0   -9571.2346   -21392.655    798.47957    9.2772929    9.2772929    9.2772929    56.735851 
    5400    297.20559   -10454.747            0   -9569.7196   -11735.972    798.27666     9.276507     9.276507     9.276507    67.949548 
    5500    302.90508    -10471.47            0   -9569.4701   -14287.499    797.04598    9.2717375    9.2717375    9.2717375    66.031715 
    5600     300.8042   -10465.733            0   -9569.9898   -12050.248    794.33099     9.261198     9.261198     9.261198    71.412546 
    5700    301.47015    -10467.02            0   -9569.2932   -3536.8634    790.77845    9.2473708    9.2473708    9.2473708    57.352555 
    5800    296.44348   -10450.623            0   -9567.8647    7877.6335    787.19335     9.233375     9.233375     9.233375    60.555531 
    5900    309.03149   -10487.592            0   -9567.3489    12021.565    784.03015    9.2209908    9.2209908    9.2209908    50.102089 
    6000    307.63412   -10482.445            0   -9566.3632    14026.912     781.6191     9.211529     9.211529     9.211529    67.119068 
Loop time of 16.6405 on 16 procs for 1000 steps with 1000 atoms

Performance: 5.192 ns/day, 4.622 hours/ns, 60.094 timesteps/s
94.7% CPU use with 16 MPI tasks x no OpenMP threads

MPI task timing breakdown:
Section |  min time  |  avg time  |  max time  |%varavg| %total
---------------------------------------------------------------
Pair    | 1.5613     | 1.6639     | 1.8903     |   6.8 | 10.00
Neigh   | 0.65809    | 0.68935    | 0.76377    |   2.7 |  4.14
Comm    | 0.80123    | 1.1018     | 1.2277     |  10.0 |  6.62
Output  | 9.1146     | 9.3711     | 13.146     |  31.8 | 56.31
Modify  | 0.029845   | 3.8055     | 4.0624     |  50.0 | 22.87
Other   |            | 0.008809   |            |       |  0.05

Nlocal:    62.5 ave 66 max 57 min
Histogram: 1 0 1 2 2 1 3 0 5 1
Nghost:    1860.19 ave 1876 max 1843 min
Histogram: 2 1 1 1 0 2 6 1 1 1
Neighs:    0 ave 0 max 0 min
Histogram: 16 0 0 0 0 0 0 0 0 0
FullNghs:  18876.6 ave 19995 max 17022 min
Histogram: 1 0 1 2 2 0 2 2 2 4

Total # of neighbors = 302026
Ave neighs/atom = 302.026
Neighbor list builds = 1000
Dangerous builds not checked
Setting up Verlet run ...
  Unit style    : real
  Current step  : 6000
  Time step     : 1
Per MPI rank memory allocation (min/avg/max) = 4.577 | 4.579 | 4.58 Mbytes
Step Temp E_pair E_mol TotEng Press Volume Lx Ly Lz S/CPU 
    6000    307.63412   -10482.445            0   -9566.3632    14026.912     781.6191     9.211529     9.211529     9.211529            0 
    6100    303.03055   -10469.928            0   -9567.5547   -1482.3455    780.44743    9.2069239    9.2069239    9.2069239    69.131844 
    6200    305.53247   -10478.644            0    -9568.821    13437.439    779.71821    9.2040555    9.2040555    9.2040555      55.4354 
    6300     314.4403   -10509.029            0   -9572.6797    10769.144    779.86529    9.2046341    9.2046341    9.2046341    67.723136 
    6400    308.19269   -10495.021            0   -9577.2753    978.94096    780.62746    9.2076317    9.2076317    9.2076317    72.181248 
    6500    313.33608   -10516.597            0   -9583.5361    5032.9743    781.65688    9.2116774    9.2116774    9.2116774    48.236021 
    6600    285.14725   -10436.898            0   -9587.7783   -3863.2012     783.0286    9.2170627    9.2170627    9.2170627     62.27029 
    6700     298.0991   -10482.675            0   -9594.9866   -464.41882     784.1605    9.2215018    9.2215018    9.2215018    63.555216 
    6800    300.22511   -10496.432            0   -9602.4133   -6932.5544    784.78784    9.2239602    9.2239602    9.2239602    67.180371 
    6900    309.25523   -10530.408            0   -9609.4987   -4579.8743    784.68747     9.223567     9.223567     9.223567    60.478666 
    7000    292.78531    -10488.82            0   -9616.9555    6717.3097    784.02607    9.2209748    9.2209748    9.2209748    56.030276 
Loop time of 16.2917 on 16 procs for 1000 steps with 1000 atoms

Performance: 5.303 ns/day, 4.525 hours/ns, 61.381 timesteps/s
94.7% CPU use with 16 MPI tasks x no OpenMP threads

MPI task timing breakdown:
Section |  min time  |  avg time  |  max time  |%varavg| %total
---------------------------------------------------------------
Pair    | 1.6693     | 1.7669     | 1.9474     |   5.8 | 10.85
Neigh   | 0.67958    | 0.71662    | 0.7813     |   3.4 |  4.40
Comm    | 0.88069    | 1.1265     | 1.2524     |   9.8 |  6.91
Output  | 8.5459     | 8.8056     | 12.639     |  33.4 | 54.05
Modify  | 0.033318   | 3.8671     | 4.1265     |  50.3 | 23.74
Other   |            | 0.008949   |            |       |  0.05

Nlocal:    62.5 ave 68 max 56 min
Histogram: 1 2 0 2 1 2 5 0 1 2
Nghost:    1851.81 ave 1875 max 1826 min
Histogram: 1 0 2 1 3 3 2 2 1 1
Neighs:    0 ave 0 max 0 min
Histogram: 16 0 0 0 0 0 0 0 0 0
FullNghs:  18844.2 ave 20580 max 16864 min
Histogram: 1 2 1 1 2 0 6 0 1 2

Total # of neighbors = 301508
Ave neighs/atom = 301.508
Neighbor list builds = 1000
Dangerous builds not checked
Setting up Verlet run ...
  Unit style    : real
  Current step  : 7000
  Time step     : 1
Per MPI rank memory allocation (min/avg/max) = 4.577 | 4.579 | 4.58 Mbytes
Step Temp E_pair E_mol TotEng Press Volume Lx Ly Lz S/CPU 
    7000    292.78531    -10488.82            0   -9616.9555    6717.3097    784.02607    9.2209748    9.2209748    9.2209748            0 
    7100    293.17271   -10496.479            0   -9623.4605    4161.1369    782.95179    9.2167613    9.2167613    9.2167613    57.068731 
    7200    303.29237   -10533.658            0   -9630.5048   -9201.3638     781.8641    9.2124913    9.2124913    9.2124913    49.092389 
    7300     307.7606    -10553.15            0   -9636.6914   -10775.948     780.5903    9.2074856    9.2074856    9.2074856    52.214537 
    7400    298.20554    -10530.26            0   -9642.2551   -641.03558    778.95586    9.2010548    9.2010548    9.2010548    60.506009 
    7500    294.58439     -10524.2            0   -9646.9775    4965.4647    777.43589    9.1950663    9.1950663    9.1950663    50.261341 
    7600    298.75393   -10540.157            0   -9650.5191    89.424316    776.25298    9.1904003    9.1904003    9.1904003     67.02812 
    7700     294.2879   -10530.218            0   -9653.8793    17361.255    775.34042    9.1867975    9.1867975    9.1867975    70.681921 
    7800    304.36291   -10562.951            0   -9656.6098    15632.716     775.3976    9.1870233    9.1870233    9.1870233    53.324896 
    7900     297.8923    -10545.73            0   -9658.6576    5843.1516    776.59536    9.1917513    9.1917513    9.1917513    79.629636 
    8000     303.3472   -10562.859            0   -9659.5426    8523.0706     778.5007    9.1992623    9.1992623    9.1992623    68.120913 
Loop time of 16.8526 on 16 procs for 1000 steps with 1000 atoms

Performance: 5.127 ns/day, 4.681 hours/ns, 59.338 timesteps/s
94.7% CPU use with 16 MPI tasks x no OpenMP threads

MPI task timing breakdown:
Section |  min time  |  avg time  |  max time  |%varavg| %total
---------------------------------------------------------------
Pair    | 1.6827     | 1.7863     | 1.9663     |   5.0 | 10.60
Neigh   | 0.68904    | 0.71928    | 0.78833    |   2.7 |  4.27
Comm    | 0.88341    | 1.1316     | 1.2636     |   8.0 |  6.71
Output  | 8.3428     | 8.6478     | 13.164     |  39.6 | 51.31
Modify  | 0.041366   | 4.5586     | 4.8641     |  54.6 | 27.05
Other   |            | 0.008973   |            |       |  0.05

Nlocal:    62.5 ave 66 max 57 min
Histogram: 1 0 2 2 1 3 0 0 4 3
Nghost:    1864 ave 1879 max 1849 min
Histogram: 2 1 2 1 2 2 2 1 1 2
Neighs:    0 ave 0 max 0 min
Histogram: 16 0 0 0 0 0 0 0 0 0
FullNghs:  18967.9 ave 20212 max 17248 min
Histogram: 1 1 3 0 2 2 0 0 4 3

Total # of neighbors = 303486
Ave neighs/atom = 303.486
Neighbor list builds = 1000
Dangerous builds not checked
Setting up Verlet run ...
  Unit style    : real
  Current step  : 8000
  Time step     : 1
Per MPI rank memory allocation (min/avg/max) = 4.577 | 4.579 | 4.58 Mbytes
Step Temp E_pair E_mol TotEng Press Volume Lx Ly Lz S/CPU 
    8000     303.3472   -10562.859            0   -9659.5426    8523.0706     778.5007    9.1992623    9.1992623    9.1992623            0 
    8100    301.39715   -10558.308            0   -9660.7987    4519.1321    780.53622     9.207273     9.207273     9.207273    59.258301 
    8200    300.70586    -10555.32            0   -9659.8694   -1501.4682    782.26127     9.214051     9.214051     9.214051    74.209135 
    8300    291.46222   -10525.889            0   -9657.9647   -12203.748    783.58785    9.2192565    9.2192565    9.2192565    58.267646 
    8400    298.80842   -10544.322            0   -9654.5218    1862.0573    784.21696    9.2217231    9.2217231    9.2217231    40.726578 
    8500     289.5008   -10509.558            0   -9647.4741   -13373.205     784.3371     9.222194     9.222194     9.222194    65.898672 
    8600    292.04212   -10508.417            0   -9638.7658    8995.1991    784.17386    9.2215542    9.2215542    9.2215542    56.010371 
    8700    297.45441    -10514.29            0   -9628.5217    2081.4098    784.24586    9.2218364    9.2218364    9.2218364     54.55291 
    8800    304.58068   -10524.735            0    -9617.746    3427.5106    784.27927    9.2219673    9.2219673    9.2219673    55.899984 
    8900    296.48308   -10489.558            0   -9606.6816   -258.65323    784.47192    9.2227223    9.2227223    9.2227223    54.231029 
    9000    306.55896   -10511.483            0   -9598.6026    3066.1987    784.86389    9.2242582    9.2242582    9.2242582     67.21727 
Loop time of 17.4632 on 16 procs for 1000 steps with 1000 atoms

Performance: 4.948 ns/day, 4.851 hours/ns, 57.263 timesteps/s
94.7% CPU use with 16 MPI tasks x no OpenMP threads

MPI task timing breakdown:
Section |  min time  |  avg time  |  max time  |%varavg| %total
---------------------------------------------------------------
Pair    | 1.6449     | 1.7544     | 1.9214     |   5.7 | 10.05
Neigh   | 0.6738     | 0.71413    | 0.79273    |   3.5 |  4.09
Comm    | 0.89331    | 1.1387     | 1.2735     |   9.6 |  6.52
Output  | 9.7769     | 10.033     | 13.808     |  30.8 | 57.45
Modify  | 0.038333   | 3.8143     | 4.0701     |  49.9 | 21.84
Other   |            | 0.008901   |            |       |  0.05

Nlocal:    62.5 ave 70 max 57 min
Histogram: 1 1 2 5 1 3 2 0 0 1
Nghost:    1861.12 ave 1883 max 1840 min
Histogram: 3 1 0 3 1 1 3 1 2 1
Neighs:    0 ave 0 max 0 min
Histogram: 16 0 0 0 0 0 0 0 0 0
FullNghs:  18804.2 ave 21089 max 17189 min
Histogram: 1 1 4 2 2 3 1 1 0 1

Total # of neighbors = 300868
Ave neighs/atom = 300.868
Neighbor list builds = 1000
Dangerous builds not checked
Setting up Verlet run ...
  Unit style    : real
  Current step  : 9000
  Time step     : 1
Per MPI rank memory allocation (min/avg/max) = 4.577 | 4.579 | 4.58 Mbytes
Step Temp E_pair E_mol TotEng Press Volume Lx Ly Lz S/CPU 
    9000    306.55896   -10511.483            0   -9598.6026    3066.1987    784.86389    9.2242582    9.2242582    9.2242582            0 
    9100    299.50177   -10482.611            0   -9590.7456   -9360.6754    785.28989    9.2259268    9.2259268    9.2259268    63.603625 
    9200    305.71268   -10496.451            0   -9586.0909    2624.1288    785.62948    9.2272564    9.2272564    9.2272564     44.94558 
    9300    303.50628   -10485.125            0   -9581.3352    1587.3616    785.99686    9.2286945    9.2286945    9.2286945    68.285818 
    9400    298.90791   -10466.563            0   -9576.4658    263.03395    786.66101    9.2312931    9.2312931    9.2312931    59.608964 
    9500    296.01213   -10453.916            0   -9572.4423    5655.3832    787.43872    9.2343342    9.2343342    9.2343342     66.52158 
    9600    310.64493   -10495.719            0    -9570.671    -8840.294    788.41862    9.2381631    9.2381631    9.2381631    71.517254 
    9700    306.27794   -10480.574            0   -9568.5308   -14959.417    788.87009    9.2399261    9.2399261    9.2399261     52.51951 
    9800     301.8881   -10465.751            0   -9566.7801   -8595.6103    788.42629     9.238193     9.238193     9.238193    52.718361 
    9900     303.2516   -10470.731            0   -9567.6998   -15127.357    787.53819     9.234723     9.234723     9.234723    55.689456 
   10000    309.43132   -10489.974            0   -9568.5408   -4609.4944    786.04834     9.228896     9.228896     9.228896    64.537449 
Loop time of 16.9868 on 16 procs for 1000 steps with 1000 atoms

Performance: 5.086 ns/day, 4.719 hours/ns, 58.869 timesteps/s
94.7% CPU use with 16 MPI tasks x no OpenMP threads

MPI task timing breakdown:
Section |  min time  |  avg time  |  max time  |%varavg| %total
---------------------------------------------------------------
Pair    | 1.5826     | 1.7149     | 1.9133     |   6.4 | 10.10
Neigh   | 0.65716    | 0.70228    | 0.76718    |   3.2 |  4.13
Comm    | 0.87054    | 1.1336     | 1.3118     |  10.2 |  6.67
Output  | 9.4049     | 9.6581     | 13.395     |  31.0 | 56.86
Modify  | 0.03163    | 3.7691     | 4.0223     |  49.7 | 22.19
Other   |            | 0.00881    |            |       |  0.05

Nlocal:    62.5 ave 69 max 56 min
Histogram: 1 1 0 4 1 3 4 0 1 1
Nghost:    1842.62 ave 1860 max 1818 min
Histogram: 3 0 2 0 0 1 1 4 2 3
Neighs:    0 ave 0 max 0 min
Histogram: 16 0 0 0 0 0 0 0 0 0
FullNghs:  18777 ave 20819 max 16667 min
Histogram: 1 1 1 2 2 3 4 0 1 1

Total # of neighbors = 300432
Ave neighs/atom = 300.432
Neighbor list builds = 1000
Dangerous builds not checked
Setting up Verlet run ...
  Unit style    : real
  Current step  : 10000
  Time step     : 1
Per MPI rank memory allocation (min/avg/max) = 4.577 | 4.579 | 4.58 Mbytes
Step Temp E_pair E_mol TotEng Press Volume Lx Ly Lz S/CPU 
   10000    309.43132   -10489.974            0   -9568.5408   -4609.4944    786.04834     9.228896     9.228896     9.228896            0 
   10100    304.14704   -10475.605            0   -9569.9069   -20841.615    783.90177    9.2204875    9.2204875    9.2204875     64.68992 
   10200    303.68314   -10477.283            0   -9572.9664    12696.316    781.24189    9.2100469    9.2100469    9.2100469     58.24661 
   10300    310.19911    -10500.61            0   -9576.8895    13763.525    779.27767    9.2023217    9.2023217    9.2023217    78.597797 
   10400    296.06252   -10463.385            0   -9581.7617    4978.7023    778.27961    9.1983914    9.1983914    9.1983914    71.746756 
   10500    312.65632   -10520.587            0   -9589.5496    9879.5863    777.68451    9.1960463    9.1960463    9.1960463    53.122861 
   10600    295.83288   -10479.599            0   -9598.6591    2184.8167    777.57686     9.195622     9.195622     9.195622    69.650262 
   10700    298.67535   -10498.278            0   -9608.8734    18004.261    778.06459    9.1975442    9.1975442    9.1975442    83.213996 
   10800    306.55507   -10534.646            0   -9621.7777    4123.8332    779.60647    9.2036157    9.2036157    9.2036157    57.352452 
   10900    292.15539   -10500.872            0   -9630.8836    10741.286    781.35676    9.2104983    9.2104983    9.2104983    57.071313 
   11000    288.84284   -10499.828            0   -9639.7032     9694.863    783.12123    9.2174261    9.2174261    9.2174261    66.255413 
Loop time of 15.4538 on 16 procs for 1000 steps with 1000 atoms

Performance: 5.591 ns/day, 4.293 hours/ns, 64.709 timesteps/s
94.8% CPU use with 16 MPI tasks x no OpenMP threads

MPI task timing breakdown:
Section |  min time  |  avg time  |  max time  |%varavg| %total
---------------------------------------------------------------
Pair    | 1.5898     | 1.7166     | 1.9064     |   5.7 | 11.11
Neigh   | 0.6661     | 0.69669    | 0.74738    |   2.4 |  4.51
Comm    | 0.9029     | 1.1426     | 1.2835     |   8.5 |  7.39
Output  | 8.121      | 8.3593     | 11.86      |  31.3 | 54.09
Modify  | 0.0282     | 3.5297     | 3.7683     |  48.1 | 22.84
Other   |            | 0.008824   |            |       |  0.06

Nlocal:    62.5 ave 68 max 55 min
Histogram: 2 0 0 0 3 1 7 1 1 1
Nghost:    1844.5 ave 1874 max 1813 min
Histogram: 1 3 0 0 4 2 3 1 0 2
Neighs:    0 ave 0 max 0 min
Histogram: 16 0 0 0 0 0 0 0 0 0
FullNghs:  18873.4 ave 20789 max 16286 min
Histogram: 1 1 0 0 3 3 2 4 1 1

Total # of neighbors = 301974
Ave neighs/atom = 301.974
Neighbor list builds = 1000
Dangerous builds not checked
Setting up Verlet run ...
  Unit style    : real
  Current step  : 11000
  Time step     : 1
Per MPI rank memory allocation (min/avg/max) = 4.577 | 4.579 | 4.58 Mbytes
Step Temp E_pair E_mol TotEng Press Volume Lx Ly Lz S/CPU 
   11000    288.84284   -10499.828            0   -9639.7032     9694.863    783.12123    9.2174261    9.2174261    9.2174261            0 
   11100    300.60479   -10541.598            0   -9646.4483   -15046.579    785.17382    9.2254722    9.2254722    9.2254722     43.23346 
   11200    295.54633   -10530.578            0    -9650.491   -2448.9065    786.81836    9.2319086    9.2319086    9.2319086     72.59367 
   11300    299.15767   -10544.016            0   -9653.1756   -15116.945    788.03011    9.2366454    9.2366454    9.2366454    46.802758 
   11400    288.85418   -10513.755            0   -9653.5961    -14832.26    788.46517    9.2383449    9.2383449    9.2383449    71.100856 
   11500    294.09265   -10529.644            0   -9653.8859    -6374.564     787.7615    9.2355958    9.2355958    9.2355958    64.330255 
   11600    291.02005   -10518.866            0   -9652.2576   -6491.5795    785.90485    9.2283344    9.2283344    9.2283344    56.369572 
   11700     294.9996    -10525.84            0    -9647.382    6597.9739    783.58432    9.2192426    9.2192426    9.2192426    67.250824 
   11800    309.22011   -10561.604            0   -9640.7998    5094.5747    781.46001    9.2109039    9.2109039    9.2109039    72.783744 
   11900    301.89585   -10530.418            0   -9631.4234    9957.4363    779.70963    9.2040217    9.2040217    9.2040217     51.85535 
   12000    296.20482    -10502.86            0   -9620.8124    5311.8298    778.69243    9.2000174    9.2000174    9.2000174    71.471011 
Loop time of 16.7507 on 16 procs for 1000 steps with 1000 atoms

Performance: 5.158 ns/day, 4.653 hours/ns, 59.699 timesteps/s
94.7% CPU use with 16 MPI tasks x no OpenMP threads

MPI task timing breakdown:
Section |  min time  |  avg time  |  max time  |%varavg| %total
---------------------------------------------------------------
Pair    | 1.5474     | 1.7096     | 1.8661     |   6.2 | 10.21
Neigh   | 0.66464    | 0.69986    | 0.7533     |   2.5 |  4.18
Comm    | 0.91852    | 1.1271     | 1.3076     |   9.2 |  6.73
Output  | 8.8326     | 9.108      | 13.174     |  34.8 | 54.37
Modify  | 0.029797   | 4.0973     | 4.3734     |  51.9 | 24.46
Other   |            | 0.008785   |            |       |  0.05

Nlocal:    62.5 ave 67 max 57 min
Histogram: 1 1 2 0 2 2 1 2 1 4
Nghost:    1865.75 ave 1879 max 1857 min
Histogram: 4 1 2 1 1 2 3 1 0 1
Neighs:    0 ave 0 max 0 min
Histogram: 16 0 0 0 0 0 0 0 0 0
FullNghs:  18950.2 ave 20136 max 17101 min
Histogram: 1 1 2 0 1 3 1 2 0 5

Total # of neighbors = 303204
Ave neighs/atom = 303.204
Neighbor list builds = 1000
Dangerous builds not checked
Setting up Verlet run ...
  Unit style    : real
  Current step  : 12000
  Time step     : 1
Per MPI rank memory allocation (min/avg/max) = 4.577 | 4.579 | 4.58 Mbytes
Step Temp E_pair E_mol TotEng Press Volume Lx Ly Lz S/CPU 
   12000    296.20482    -10502.86            0   -9620.8124    5311.8298    778.69243    9.2000174    9.2000174    9.2000174            0 
   12100    292.96422    -10480.81            0   -9608.4127    3852.6992    778.14171    9.1978481    9.1978481    9.1978481    56.673473 
   12200    310.38681   -10520.588            0   -9596.3091    14535.729    778.10883    9.1977185    9.1977185    9.1977185    61.627345 
   12300    301.15732    -10481.13            0   -9584.3344    16336.232    778.82889    9.2005548    9.2005548    9.2005548     71.14644 
   12400    297.46021   -10459.702            0   -9573.9167    4033.1772    780.39353    9.2067119    9.2067119    9.2067119    65.070647 
   12500     302.1713   -10467.698            0   -9567.8832    2875.8753    781.90211    9.2126406    9.2126406    9.2126406    70.613104 
   12600    308.17818   -10481.687            0   -9563.9852   -1772.2101    783.27535    9.2180307    9.2180307    9.2180307    72.512747 
   12700     299.9116   -10454.994            0   -9561.9084   -8650.7058    784.31832    9.2221204    9.2221204    9.2221204    53.291191 
   12800    302.47181   -10461.689            0   -9560.9793   -6871.7514    785.43965    9.2265132    9.2265132    9.2265132    73.858012 
   12900    302.28634   -10460.934            0    -9560.777   -302.18241    786.57429    9.2309539    9.2309539    9.2309539    70.049468 
   13000    308.54335       -10480            0   -9561.2111     7504.884    787.67784    9.2352688    9.2352688    9.2352688    64.095767 
Loop time of 15.3429 on 16 procs for 1000 steps with 1000 atoms

Performance: 5.631 ns/day, 4.262 hours/ns, 65.177 timesteps/s
94.8% CPU use with 16 MPI tasks x no OpenMP threads

MPI task timing breakdown:
Section |  min time  |  avg time  |  max time  |%varavg| %total
---------------------------------------------------------------
Pair    | 1.6521     | 1.7624     | 1.9457     |   5.8 | 11.49
Neigh   | 0.6693     | 0.7143     | 0.77633    |   3.1 |  4.66
Comm    | 0.89325    | 1.1365     | 1.2744     |   9.4 |  7.41
Output  | 7.7884     | 8.0358     | 11.687     |  33.3 | 52.37
Modify  | 0.030828   | 3.685      | 3.9328     |  49.2 | 24.02
Other   |            | 0.008884   |            |       |  0.06

Nlocal:    62.5 ave 69 max 57 min
Histogram: 1 2 2 2 1 5 0 1 0 2
Nghost:    1860.25 ave 1880 max 1830 min
Histogram: 1 0 0 4 3 0 1 1 2 4
Neighs:    0 ave 0 max 0 min
Histogram: 16 0 0 0 0 0 0 0 0 0
FullNghs:  18751.1 ave 20824 max 17197 min
Histogram: 1 3 2 2 2 3 0 1 0 2

Total # of neighbors = 300018
Ave neighs/atom = 300.018
Neighbor list builds = 1000
Dangerous builds not checked
Setting up Verlet run ...
  Unit style    : real
  Current step  : 13000
  Time step     : 1
Per MPI rank memory allocation (min/avg/max) = 4.577 | 4.579 | 4.58 Mbytes
Step Temp E_pair E_mol TotEng Press Volume Lx Ly Lz S/CPU 
   13000    308.54335       -10480            0   -9561.2111     7504.884    787.67784    9.2352688    9.2352688    9.2352688            0 
   13100    302.43388   -10463.046            0   -9562.4497   -10588.103    789.13103    9.2409448    9.2409448    9.2409448    59.199914 
   13200    298.31795    -10453.75            0     -9565.41   -6743.1687    790.35154    9.2457065    9.2457065    9.2457065    72.461064 
   13300     300.7291   -10464.448            0   -9568.9286     987.3314    790.97618    9.2481415    9.2481415    9.2481415    56.023556 
   13400    297.16426   -10457.998            0   -9573.0939    823.41736    791.16699    9.2488852    9.2488852    9.2488852    70.508715 
   13500    305.25011   -10488.993            0   -9580.0098   -14240.021    790.79298    9.2474275    9.2474275    9.2474275    71.395175 
   13600    305.72448   -10497.949            0   -9587.5537   -16292.802    789.49766    9.2423757    9.2423757    9.2423757    56.855552 
   13700    318.94933   -10545.015            0   -9595.2386   -5711.2179    787.52056    9.2346541    9.2346541    9.2346541    58.248202 
   13800    287.84766   -10457.359            0   -9600.1981    6254.6017    785.56013    9.2269849    9.2269849    9.2269849    67.018163 
   13900    299.42295   -10499.623            0   -9607.9922    12509.361    783.76789    9.2199625    9.2199625    9.2199625    63.689892 
   14000    307.79433    -10531.94            0   -9615.3812    3222.9964    782.50703    9.2150157    9.2150157    9.2150157    54.953157 
Loop time of 16.0308 on 16 procs for 1000 steps with 1000 atoms

Performance: 5.390 ns/day, 4.453 hours/ns, 62.380 timesteps/s
94.8% CPU use with 16 MPI tasks x no OpenMP threads

MPI task timing breakdown:
Section |  min time  |  avg time  |  max time  |%varavg| %total
---------------------------------------------------------------
Pair    | 1.596      | 1.729      | 2.0202     |   8.1 | 10.79
Neigh   | 0.65829    | 0.7095     | 0.80184    |   4.3 |  4.43
Comm    | 0.76292    | 1.1464     | 1.3138     |  13.2 |  7.15
Output  | 8.3509     | 8.608      | 12.406     |  33.4 | 53.70
Modify  | 0.03072    | 3.8289     | 4.0861     |  50.1 | 23.89
Other   |            | 0.008855   |            |       |  0.06

Nlocal:    62.5 ave 67 max 58 min
Histogram: 1 2 0 3 2 2 2 2 1 1
Nghost:    1852.31 ave 1872 max 1831 min
Histogram: 2 0 1 2 2 3 2 2 1 1
Neighs:    0 ave 0 max 0 min
Histogram: 16 0 0 0 0 0 0 0 0 0
FullNghs:  18852.5 ave 20297 max 17423 min
Histogram: 1 2 0 3 2 2 2 2 1 1

Total # of neighbors = 301640
Ave neighs/atom = 301.64
Neighbor list builds = 1000
Dangerous builds not checked
Setting up Verlet run ...
  Unit style    : real
  Current step  : 14000
  Time step     : 1
Per MPI rank memory allocation (min/avg/max) = 4.577 | 4.579 | 4.58 Mbytes
Step Temp E_pair E_mol TotEng Press Volume Lx Ly Lz S/CPU 
   14000    307.79433    -10531.94            0   -9615.3812    3222.9964    782.50703    9.2150157    9.2150157    9.2150157            0 
   14100    299.52397   -10514.262            0   -9622.3313    6781.0712    781.96875    9.2129023    9.2129023    9.2129023    50.144047 
   14200    282.55593   -10470.611            0   -9629.2079   -5150.3655    781.91053    9.2126737    9.2126737    9.2126737    67.382322 
   14300    290.81313   -10502.459            0   -9636.4671    8460.0853     781.9637    9.2128825    9.2128825    9.2128825    68.024384 
   14400    296.08345    -10523.98            0   -9642.2936    8154.9074    782.14404    9.2135907    9.2135907    9.2135907    59.902104 
   14500    292.20855   -10515.968            0   -9645.8212    1381.7032    782.27569    9.2141076    9.2141076    9.2141076    71.044311 
   14600     282.6233    -10491.78            0   -9650.1762    2978.0703    782.34143    9.2143657    9.2143657    9.2143657    62.803279 
   14700    300.77549   -10548.721            0   -9653.0626   -1886.5541    782.23736    9.2139571    9.2139571    9.2139571    59.548929 
   14800    297.32099   -10537.637            0   -9652.2662   -1766.4126    782.25912    9.2140425    9.2140425    9.2140425    73.983112 
   14900    289.68243   -10513.549            0   -9650.9244   -13636.971    782.47515    9.2148906    9.2148906    9.2148906    55.953151 
   15000    287.94453   -10505.724            0   -9648.2741    5781.8564    782.36262    9.2144488    9.2144488    9.2144488    75.341579 
Loop time of 15.7631 on 16 procs for 1000 steps with 1000 atoms

Performance: 5.481 ns/day, 4.379 hours/ns, 63.439 timesteps/s
94.8% CPU use with 16 MPI tasks x no OpenMP threads

MPI task timing breakdown:
Section |  min time  |  avg time  |  max time  |%varavg| %total
---------------------------------------------------------------
Pair    | 1.6269     | 1.7434     | 1.8956     |   5.7 | 11.06
Neigh   | 0.68304    | 0.70907    | 0.75798    |   2.5 |  4.50
Comm    | 0.93942    | 1.1283     | 1.2512     |   8.7 |  7.16
Output  | 8.4578     | 8.6916     | 12.138     |  30.2 | 55.14
Modify  | 0.033438   | 3.4818     | 3.7158     |  47.7 | 22.09
Other   |            | 0.008954   |            |       |  0.06

Nlocal:    62.5 ave 66 max 58 min
Histogram: 2 0 0 2 0 4 3 1 3 1
Nghost:    1857.44 ave 1874 max 1846 min
Histogram: 2 2 2 3 1 2 2 1 0 1
Neighs:    0 ave 0 max 0 min
Histogram: 16 0 0 0 0 0 0 0 0 0
FullNghs:  18868.1 ave 20022 max 17385 min
Histogram: 2 0 0 1 2 4 2 2 1 2

Total # of neighbors = 301890
Ave neighs/atom = 301.89
Neighbor list builds = 1000
Dangerous builds not checked
Setting up Verlet run ...
  Unit style    : real
  Current step  : 15000
  Time step     : 1
Per MPI rank memory allocation (min/avg/max) = 4.578 | 4.579 | 4.58 Mbytes
Step Temp E_pair E_mol TotEng Press Volume Lx Ly Lz S/CPU 
   15000    287.94453   -10505.724            0   -9648.2741    5781.8564    782.36262    9.2144488    9.2144488    9.2144488            0 
   15100    284.05598   -10490.672            0   -9644.8016   -159.96933    782.20148    9.2138162    9.2138162    9.2138162    67.298553 
   15200    289.25146   -10501.557            0   -9640.2154   -20.751323    782.42792    9.2147052    9.2147052    9.2147052    39.930248 
   15300    297.94019   -10524.836            0   -9637.6209   -1142.7926    783.07933    9.2172617    9.2172617    9.2172617    77.545715 
   15400      296.769    -10518.19            0   -9634.4624   -3562.2936    783.85565    9.2203066    9.2203066    9.2203066    67.689432 
   15500    296.69491   -10515.471            0   -9631.9638    150.41211    784.42685    9.2225457    9.2225457    9.2225457    52.530694 
   15600    300.09118   -10523.742            0   -9630.1222   -10600.918    784.90873    9.2244338    9.2244338    9.2244338    75.161713 
   15700    305.39664   -10538.702            0   -9629.2828   -4255.0586    785.24141    9.2257369    9.2257369    9.2257369    67.096953 
   15800    294.70774   -10503.794            0   -9626.2052   -12871.585    785.61502    9.2271998    9.2271998    9.2271998    57.129935 
   15900     306.2424   -10536.592            0   -9624.6542   -4066.0387    785.83512    9.2280614    9.2280614    9.2280614    74.616386 
   16000    293.10991   -10493.835            0   -9621.0037    6634.4258    786.05613    9.2289265    9.2289265    9.2289265    64.174356 
Loop time of 16.1305 on 16 procs for 1000 steps with 1000 atoms

Performance: 5.356 ns/day, 4.481 hours/ns, 61.994 timesteps/s
94.8% CPU use with 16 MPI tasks x no OpenMP threads

MPI task timing breakdown:
Section |  min time  |  avg time  |  max time  |%varavg| %total
---------------------------------------------------------------
Pair    | 1.6277     | 1.7585     | 1.9291     |   6.2 | 10.90
Neigh   | 0.67493    | 0.71576    | 0.78786    |   3.3 |  4.44
Comm    | 0.88056    | 1.1234     | 1.2947     |  10.1 |  6.96
Output  | 8.5686     | 8.8172     | 12.488     |  31.9 | 54.66
Modify  | 0.036039   | 3.7068     | 3.9554     |  49.2 | 22.98
Other   |            | 0.008898   |            |       |  0.06

Nlocal:    62.5 ave 69 max 56 min
Histogram: 1 0 1 6 0 2 3 1 1 1
Nghost:    1853.31 ave 1873 max 1826 min
Histogram: 1 0 3 0 2 1 3 2 2 2
Neighs:    0 ave 0 max 0 min
Histogram: 16 0 0 0 0 0 0 0 0 0
FullNghs:  18766 ave 20847 max 16659 min
Histogram: 1 0 1 6 0 2 2 2 1 1

Total # of neighbors = 300256
Ave neighs/atom = 300.256
Neighbor list builds = 1000
Dangerous builds not checked
Setting up Verlet run ...
  Unit style    : real
  Current step  : 16000
  Time step     : 1
Per MPI rank memory allocation (min/avg/max) = 4.578 | 4.579 | 4.58 Mbytes
Step Temp E_pair E_mol TotEng Press Volume Lx Ly Lz S/CPU 
   16000    293.10991   -10493.835            0   -9621.0037    6634.4258    786.05613    9.2289265    9.2289265    9.2289265            0 
   16100    296.61693   -10500.867            0   -9617.5923    5417.4057    786.58276    9.2309871    9.2309871    9.2309871     59.08398 
   16200     314.6359   -10549.642            0   -9612.7102    1147.9191    787.30621    9.2338162    9.2338162    9.2338162    73.244951 
   16300    292.87868   -10477.738            0   -9605.5954    2.9406095    787.96128    9.2363765    9.2363765    9.2363765    51.677477 
   16400    296.71021   -10483.503            0   -9599.9506   -2625.0647    788.51053     9.238522     9.238522     9.238522     75.76708 
   16500    292.72425   -10465.549            0   -9593.8659    -13049.31    788.93088    9.2401634    9.2401634    9.2401634    56.871984 
   16600    302.09802   -10487.432            0   -9587.8358    5320.5436     789.3032    9.2416167    9.2416167    9.2416167    51.182009 
   16700    308.98688   -10502.608            0    -9582.498    11470.165    790.11448     9.244782     9.244782     9.244782    63.804778 
   16800    303.03535   -10478.631            0   -9576.2435   -7698.1731     791.6072    9.2506002    9.2506002    9.2506002    39.051931 
   16900    290.55193   -10434.348            0   -9569.1336   -9434.0906    792.72207    9.2549409    9.2549409    9.2549409    70.301095 
   17000    298.32303   -10450.483            0    -9562.128   -4070.2525    793.02431    9.2561169    9.2561169    9.2561169    52.711069 
Loop time of 17.4724 on 16 procs for 1000 steps with 1000 atoms

Performance: 4.945 ns/day, 4.853 hours/ns, 57.233 timesteps/s
94.7% CPU use with 16 MPI tasks x no OpenMP threads

MPI task timing breakdown:
Section |  min time  |  avg time  |  max time  |%varavg| %total
---------------------------------------------------------------
Pair    | 1.5986     | 1.7235     | 1.9295     |   6.6 |  9.86
Neigh   | 0.66851    | 0.70887    | 0.77511    |   3.2 |  4.06
Comm    | 0.82528    | 1.0972     | 1.2627     |  10.6 |  6.28
Output  | 9.3733     | 9.6603     | 13.905     |  35.3 | 55.29
Modify  | 0.028319   | 4.2738     | 4.5611     |  53.0 | 24.46
Other   |            | 0.008829   |            |       |  0.05

Nlocal:    62.5 ave 67 max 58 min
Histogram: 1 1 2 1 3 3 2 0 2 1
Nghost:    1851.06 ave 1869 max 1834 min
Histogram: 1 1 2 1 6 0 1 1 0 3
Neighs:    0 ave 0 max 0 min
Histogram: 16 0 0 0 0 0 0 0 0 0
FullNghs:  18632 ave 20114 max 17113 min
Histogram: 1 2 1 1 2 4 2 0 2 1

Total # of neighbors = 298112
Ave neighs/atom = 298.112
Neighbor list builds = 1000
Dangerous builds not checked
Setting up Verlet run ...
  Unit style    : real
  Current step  : 17000
  Time step     : 1
Per MPI rank memory allocation (min/avg/max) = 4.578 | 4.579 | 4.58 Mbytes
Step Temp E_pair E_mol TotEng Press Volume Lx Ly Lz S/CPU 
   17000    298.32303   -10450.483            0    -9562.128   -4070.2525    793.02431    9.2561169    9.2561169    9.2561169            0 
   17100     296.4043   -10437.784            0    -9555.143   -14200.358     792.9606    9.2558691    9.2558691    9.2558691    56.793517 
   17200     304.2413   -10455.413            0   -9549.4339   -6448.5809    792.30371    9.2533125    9.2533125    9.2533125    65.435857 
   17300    311.27399   -10470.181            0   -9543.2597    -21127.29    790.66879    9.2469434    9.2469434    9.2469434     54.22357 
   17400    301.58732   -10435.003            0   -9536.9272   -1758.5572    788.21706    9.2373758    9.2373758    9.2373758    69.073689 
   17500    303.85969   -10435.233            0    -9530.391     8076.581    785.42226    9.2264451    9.2264451    9.2264451    72.715406 
   17600    288.89533   -10385.639            0   -9525.3578     3599.737    782.73023    9.2158918    9.2158918    9.2158918    59.116124 
   17700    304.77173   -10429.773            0   -9522.2147    22045.522    780.60705    9.2075515    9.2075515    9.2075515    59.767711 
   17800    302.89468   -10423.012            0   -9521.0436    29011.159    779.55356    9.2034075    9.2034075    9.2034075    69.084162 
   17900    317.21454    -10467.16            0   -9522.5494    10692.464    779.62443    9.2036864    9.2036864    9.2036864    58.280127 
   18000    316.72284   -10473.322            0   -9530.1757    14821.322    780.57059    9.2074081    9.2074081    9.2074081    72.553759 
Loop time of 15.8626 on 16 procs for 1000 steps with 1000 atoms

Performance: 5.447 ns/day, 4.406 hours/ns, 63.042 timesteps/s
94.8% CPU use with 16 MPI tasks x no OpenMP threads

MPI task timing breakdown:
Section |  min time  |  avg time  |  max time  |%varavg| %total
---------------------------------------------------------------
Pair    | 1.635      | 1.7302     | 1.9694     |   7.0 | 10.91
Neigh   | 0.66069    | 0.70466    | 0.78967    |   3.6 |  4.44
Comm    | 0.7791     | 1.104      | 1.2329     |  11.3 |  6.96
Output  | 7.8647     | 8.1447     | 12.28      |  37.4 | 51.35
Modify  | 0.034226   | 4.1701     | 4.4503     |  52.3 | 26.29
Other   |            | 0.008895   |            |       |  0.06

Nlocal:    62.5 ave 70 max 57 min
Histogram: 3 1 1 5 1 0 2 0 1 2
Nghost:    1851 ave 1877 max 1831 min
Histogram: 2 3 1 2 1 3 2 0 1 1
Neighs:    0 ave 0 max 0 min
Histogram: 16 0 0 0 0 0 0 0 0 0
FullNghs:  18896 ave 21339 max 17217 min
Histogram: 3 2 1 4 1 1 0 1 2 1

Total # of neighbors = 302336
Ave neighs/atom = 302.336
Neighbor list builds = 1000
Dangerous builds not checked
Setting up Verlet run ...
  Unit style    : real
  Current step  : 18000
  Time step     : 1
Per MPI rank memory allocation (min/avg/max) = 4.578 | 4.579 | 4.58 Mbytes
Step Temp E_pair E_mol TotEng Press Volume Lx Ly Lz S/CPU 
   18000    316.72284   -10473.322            0   -9530.1757    14821.322    780.57059    9.2074081    9.2074081    9.2074081            0 
   18100    318.97671   -10494.173            0    -9544.315    29488.631    782.61028    9.2154211    9.2154211    9.2154211    67.628932 
   18200    310.48796   -10489.925            0   -9565.3447   -9987.8146    785.61396    9.2271957    9.2271957    9.2271957    45.387763 
   18300    295.42458   -10464.838            0   -9585.1138    1964.2394    788.49263    9.2384521    9.2384521    9.2384521    55.919857 
   18400    296.08301   -10481.387            0   -9599.7021   -16864.495     791.2491    9.2492051    9.2492051    9.2492051     74.33885 
   18500    296.49771   -10491.033            0    -9608.113   -5902.9942    793.51218    9.2580147    9.2580147    9.2580147    50.383198 
   18600    293.06089   -10484.505            0   -9611.8195   -4844.9148    794.64489    9.2624178    9.2624178    9.2624178    78.511172 
   18700     304.2771   -10521.077            0   -9614.9918   -8874.6024    794.51194    9.2619012    9.2619012    9.2619012    52.820837 
   18800    299.06061       -10507            0    -9616.449   -21369.687    793.26614    9.2570577    9.2570577    9.2570577    68.298467 
   18900    289.64456   -10478.599            0   -9616.0866   -6110.4402    791.11244    9.2486726    9.2486726    9.2486726    73.066386 
   19000    295.32458   -10495.183            0   -9615.7568   -4106.3298    788.37558     9.237995     9.237995     9.237995    59.420436 
Loop time of 16.4828 on 16 procs for 1000 steps with 1000 atoms

Performance: 5.242 ns/day, 4.579 hours/ns, 60.669 timesteps/s
94.7% CPU use with 16 MPI tasks x no OpenMP threads

MPI task timing breakdown:
Section |  min time  |  avg time  |  max time  |%varavg| %total
---------------------------------------------------------------
Pair    | 1.5709     | 1.6967     | 1.9154     |   6.7 | 10.29
Neigh   | 0.66274    | 0.69836    | 0.77571    |   3.1 |  4.24
Comm    | 0.83271    | 1.1291     | 1.2566     |  10.3 |  6.85
Output  | 8.4676     | 8.7489     | 12.906     |  36.3 | 53.08
Modify  | 0.043261   | 4.2009     | 4.4828     |  52.4 | 25.49
Other   |            | 0.008784   |            |       |  0.05

Nlocal:    62.5 ave 69 max 57 min
Histogram: 2 1 1 1 4 3 2 0 1 1
Nghost:    1861.62 ave 1883 max 1845 min
Histogram: 1 2 3 1 2 3 2 0 1 1
Neighs:    0 ave 0 max 0 min
Histogram: 16 0 0 0 0 0 0 0 0 0
FullNghs:  18705.1 ave 20701 max 17009 min
Histogram: 2 1 1 3 2 1 4 0 1 1

Total # of neighbors = 299282
Ave neighs/atom = 299.282
Neighbor list builds = 1000
Dangerous builds not checked
Setting up Verlet run ...
  Unit style    : real
  Current step  : 19000
  Time step     : 1
Per MPI rank memory allocation (min/avg/max) = 4.578 | 4.579 | 4.58 Mbytes
Step Temp E_pair E_mol TotEng Press Volume Lx Ly Lz S/CPU 
   19000    295.32458   -10495.183            0   -9615.7568   -4106.3298    788.37558     9.237995     9.237995     9.237995            0 
   19100    286.75014   -10467.531            0   -9613.6381      1112.19    785.08593     9.225128     9.225128     9.225128     61.43681 
   19200    305.75605   -10523.454            0   -9612.9647    5036.6256    782.15184    9.2136213    9.2136213    9.2136213    61.864746 
   19300     294.4887   -10490.327            0   -9613.3897    10507.079    779.79483    9.2043569    9.2043569    9.2043569    54.352343 
   19400    305.59816   -10525.022            0    -9615.003    20408.978    778.09325    9.1976571    9.1976571    9.1976571    67.504343 
   19500    305.42385   -10526.602            0   -9617.1023   -6574.1755    777.58425    9.1956511    9.1956511    9.1956511    53.143096 
   19600    299.28433    -10509.81            0   -9618.5924   -1447.6719    777.75154    9.1963105    9.1963105    9.1963105    70.930467 
   19700    294.93073   -10499.242            0   -9620.9888     -3543.41    778.28836    9.1984258    9.1984258    9.1984258    70.471484 
   19800    292.54186   -10495.478            0   -9624.3383   -2689.4349    778.84931    9.2006352    9.2006352    9.2006352    58.111353 
   19900    305.05698   -10537.447            0   -9629.0389   -7221.7419     779.1942    9.2019931    9.2019931    9.2019931    59.655739 
   20000     305.0249   -10542.396            0   -9634.0842    4584.5711    779.44564    9.2029828    9.2029828    9.2029828    52.362616 
Loop time of 16.5828 on 16 procs for 1000 steps with 1000 atoms

Performance: 5.210 ns/day, 4.606 hours/ns, 60.303 timesteps/s
94.7% CPU use with 16 MPI tasks x no OpenMP threads

MPI task timing breakdown:
Section |  min time  |  avg time  |  max time  |%varavg| %total
---------------------------------------------------------------
Pair    | 1.6083     | 1.7502     | 1.9459     |   6.3 | 10.55
Neigh   | 0.67146    | 0.70686    | 0.7613     |   3.0 |  4.26
Comm    | 0.85055    | 1.1008     | 1.2603     |  10.2 |  6.64
Output  | 8.3321     | 8.6263     | 12.977     |  38.3 | 52.02
Modify  | 0.038243   | 4.3898     | 4.6842     |  53.6 | 26.47
Other   |            | 0.008914   |            |       |  0.05

Nlocal:    62.5 ave 66 max 57 min
Histogram: 1 1 0 0 2 2 5 3 0 2
Nghost:    1861.94 ave 1884 max 1849 min
Histogram: 5 1 2 1 2 1 1 1 1 1
Neighs:    0 ave 0 max 0 min
Histogram: 16 0 0 0 0 0 0 0 0 0
FullNghs:  18928 ave 20101 max 17249 min
Histogram: 2 0 0 0 2 2 5 3 0 2

Total # of neighbors = 302848
Ave neighs/atom = 302.848
Neighbor list builds = 1000
Dangerous builds not checked
Setting up Verlet run ...
  Unit style    : real
  Current step  : 20000
  Time step     : 1
Per MPI rank memory allocation (min/avg/max) = 4.578 | 4.579 | 4.58 Mbytes
Step Temp E_pair E_mol TotEng Press Volume Lx Ly Lz S/CPU 
   20000     305.0249   -10542.396            0   -9634.0842    4584.5711    779.44564    9.2029828    9.2029828    9.2029828            0 
   20100    300.73687   -10535.619            0   -9640.0756   -3717.2535     780.1845    9.2058898    9.2058898    9.2058898    66.052127 
   20200    293.58532   -10520.667            0   -9646.4197   -2215.2888    781.54414    9.2112344    9.2112344    9.2112344    64.698052 
   20300    294.67755   -10530.817            0   -9653.3175   -7137.7114    783.18774    9.2176871    9.2176871    9.2176871    56.452876 
   20400    282.94865   -10502.098            0   -9659.5257   -6117.7083    784.69864    9.2236107    9.2236107    9.2236107     70.29238 
   20500    286.86545   -10518.227            0   -9663.9908   -19752.692    786.00699    9.2287342    9.2287342    9.2287342    69.101996 
   20600    291.01741   -10534.336            0   -9667.7357   -12736.718    786.43148    9.2303952    9.2303952    9.2303952    54.407063 
   20700    280.33542   -10504.582            0   -9669.7907   -10790.239    785.78462    9.2278638    9.2278638    9.2278638    69.117544 
   20800    289.45673   -10530.611            0    -9668.658   -8432.5419    784.35655    9.2222702    9.2222702    9.2222702    59.938493 
   20900    283.07794   -10506.012            0   -9663.0539     -9083.74    782.64153    9.2155437    9.2155437    9.2155437    65.859969 
   21000    283.98869   -10500.803            0   -9655.1332     275.3631    780.73247    9.2080446    9.2080446    9.2080446    58.117914 
Loop time of 15.8931 on 16 procs for 1000 steps with 1000 atoms

Performance: 5.436 ns/day, 4.415 hours/ns, 62.920 timesteps/s
94.8% CPU use with 16 MPI tasks x no OpenMP threads

MPI task timing breakdown:
Section |  min time  |  avg time  |  max time  |%varavg| %total
---------------------------------------------------------------
Pair    | 1.6385     | 1.7443     | 1.8231     |   4.3 | 10.98
Neigh   | 0.68523    | 0.70959    | 0.73391    |   1.9 |  4.46
Comm    | 1.004      | 1.0943     | 1.2195     |   6.4 |  6.89
Output  | 7.9899     | 8.2636     | 12.306     |  36.3 | 51.99
Modify  | 0.029338   | 4.0723     | 4.3463     |  51.7 | 25.62
Other   |            | 0.00895    |            |       |  0.06

Nlocal:    62.5 ave 68 max 57 min
Histogram: 1 3 1 1 1 4 1 1 0 3
Nghost:    1864.5 ave 1881 max 1843 min
Histogram: 1 0 0 2 2 5 2 1 2 1
Neighs:    0 ave 0 max 0 min
Histogram: 16 0 0 0 0 0 0 0 0 0
FullNghs:  18910.1 ave 20641 max 17321 min
Histogram: 3 1 1 1 1 4 2 0 1 2

Total # of neighbors = 302562
Ave neighs/atom = 302.562
Neighbor list builds = 1000
Dangerous builds not checked
Setting up Verlet run ...
  Unit style    : real
  Current step  : 21000
  Time step     : 1
Per MPI rank memory allocation (min/avg/max) = 4.578 | 4.579 | 4.58 Mbytes
Step Temp E_pair E_mol TotEng Press Volume Lx Ly Lz S/CPU 
   21000    283.98869   -10500.803            0   -9655.1332     275.3631    780.73247    9.2080446    9.2080446    9.2080446            0 
   21100    299.63787   -10535.846            0   -9643.5754   -4042.3537    778.86525     9.200698     9.200698     9.200698    63.170722 
   21200    305.83112   -10539.476            0   -9628.7635    7395.0384    776.84572    9.1927389    9.1927389    9.1927389    62.911887 
   21300    294.47581   -10490.962            0   -9614.0631    14502.538    775.36375    9.1868896    9.1868896    9.1868896    57.036639 
   21400     301.1849   -10498.883            0   -9602.0062    5169.3171    774.81269    9.1847127    9.1847127    9.1847127    75.474716 
   21500    305.28835   -10503.585            0   -9594.4881    5854.9638    775.05971    9.1856886    9.1856886    9.1856886    67.318493 
   21600    297.36375   -10475.385            0   -9589.8866    14913.902     776.2668    9.1904548    9.1904548    9.1904548    59.060021 
   21700    302.33082   -10488.564            0   -9588.2742     5581.752     778.6533    9.1998633    9.1998633    9.1998633    73.548757 
   21800    307.44799   -10503.348            0     -9587.82    6521.9251    781.78173    9.2121678    9.2121678    9.2121678    49.999324 
   21900    309.26312   -10508.847            0   -9587.9137   -9078.5668    785.46642     9.226618     9.226618     9.226618     71.67408 
   22000    308.42927   -10508.807            0   -9590.3577   -11417.386    788.88321    9.2399773    9.2399773    9.2399773     73.91942 
Loop time of 15.5372 on 16 procs for 1000 steps with 1000 atoms

Performance: 5.561 ns/day, 4.316 hours/ns, 64.362 timesteps/s
94.8% CPU use with 16 MPI tasks x no OpenMP threads

MPI task timing breakdown:
Section |  min time  |  avg time  |  max time  |%varavg| %total
---------------------------------------------------------------
Pair    | 1.6918     | 1.7912     | 1.9866     |   6.2 | 11.53
Neigh   | 0.68171    | 0.72029    | 0.76718    |   3.0 |  4.64
Comm    | 0.89594    | 1.1278     | 1.2498     |   9.8 |  7.26
Output  | 8.1464     | 8.3819     | 11.854     |  31.0 | 53.95
Modify  | 0.035108   | 3.5071     | 3.743      |  47.9 | 22.57
Other   |            | 0.008918   |            |       |  0.06

Nlocal:    62.5 ave 67 max 59 min
Histogram: 3 1 1 4 0 1 1 4 0 1
Nghost:    1841.06 ave 1848 max 1831 min
Histogram: 1 0 2 0 2 3 1 4 0 3
Neighs:    0 ave 0 max 0 min
Histogram: 16 0 0 0 0 0 0 0 0 0
FullNghs:  18699 ave 20042 max 17481 min
Histogram: 3 1 1 0 4 1 1 3 1 1

Total # of neighbors = 299184
Ave neighs/atom = 299.184
Neighbor list builds = 1000
Dangerous builds not checked
Setting up Verlet run ...
  Unit style    : real
  Current step  : 22000
  Time step     : 1
Per MPI rank memory allocation (min/avg/max) = 4.578 | 4.579 | 4.58 Mbytes
Step Temp E_pair E_mol TotEng Press Volume Lx Ly Lz S/CPU 
   22000    308.42927   -10508.807            0   -9590.3577   -11417.386    788.88321    9.2399773    9.2399773    9.2399773            0 
   22100    295.02686   -10469.752            0   -9591.2119   -2831.2213    791.68776     9.250914     9.250914     9.250914    52.126249 
   22200    295.86858   -10474.469            0   -9593.4232   -20313.818    793.56105    9.2582048    9.2582048    9.2582048    67.165606 
   22300    306.57304   -10509.863            0   -9596.9412    -13313.99    793.96881    9.2597902    9.2597902    9.2597902    56.469026 
   22400     293.4647   -10473.603            0   -9599.7155   -16238.779     793.4759    9.2578736    9.2578736    9.2578736    72.654942 
   22500    300.18772   -10496.587            0   -9602.6795   -10832.568    791.87137    9.2516291    9.2516291    9.2516291    39.803598 
   22600    295.24809   -10483.637            0    -9604.439    2286.8317    789.37595    9.2419007    9.2419007    9.2419007    69.311927 
   22700    290.43794   -10471.045            0   -9606.1702    10803.944    786.61685    9.2311204    9.2311204    9.2311204    67.745915 
   22800    310.85787   -10535.782            0   -9610.1003     -1073.02    783.93081    9.2206013    9.2206013    9.2206013    53.765326 
   22900      298.498   -10503.306            0   -9614.4303   -4260.7307     781.6628    9.2117006    9.2117006    9.2117006    73.026899 
   23000    314.35887   -10558.829            0   -9622.7221    9660.7621    779.87779    9.2046833    9.2046833    9.2046833    53.712564 
Loop time of 17.0769 on 16 procs for 1000 steps with 1000 atoms

Performance: 5.059 ns/day, 4.744 hours/ns, 58.559 timesteps/s
94.7% CPU use with 16 MPI tasks x no OpenMP threads

MPI task timing breakdown:
Section |  min time  |  avg time  |  max time  |%varavg| %total
---------------------------------------------------------------
Pair    | 1.6165     | 1.7016     | 1.8474     |   4.7 |  9.96
Neigh   | 0.66299    | 0.7009     | 0.74635    |   2.5 |  4.10
Comm    | 0.90432    | 1.0957     | 1.219      |   7.5 |  6.42
Output  | 8.8374     | 9.1352     | 13.54      |  37.6 | 53.49
Modify  | 0.029802   | 4.4346     | 4.7327     |  54.0 | 25.97
Other   |            | 0.008879   |            |       |  0.05

Nlocal:    62.5 ave 70 max 57 min
Histogram: 2 1 1 4 2 2 3 0 0 1
Nghost:    1864.5 ave 1877 max 1854 min
Histogram: 4 1 1 0 1 1 6 0 1 1
Neighs:    0 ave 0 max 0 min
Histogram: 16 0 0 0 0 0 0 0 0 0
FullNghs:  18951.1 ave 21488 max 17314 min
Histogram: 2 1 3 3 2 2 2 0 0 1

Total # of neighbors = 303218
Ave neighs/atom = 303.218
Neighbor list builds = 1000
Dangerous builds not checked
Setting up Verlet run ...
  Unit style    : real
  Current step  : 23000
  Time step     : 1
Per MPI rank memory allocation (min/avg/max) = 4.578 | 4.579 | 4.58 Mbytes
Step Temp E_pair E_mol TotEng Press Volume Lx Ly Lz S/CPU 
   23000    314.35887   -10558.829            0   -9622.7221    9660.7621    779.87779    9.2046833    9.2046833    9.2046833            0 
   23100    291.01179   -10496.897            0   -9630.3132    4853.4088    778.89282    9.2008065    9.2008065    9.2008065    64.292655 
   23200    301.30698   -10540.836            0   -9643.5949   -6547.1045    778.67478    9.1999479    9.1999479    9.1999479     66.32347 
   23300    301.25449   -10553.353            0    -9656.269    1480.8137    778.51925    9.1993354    9.1993354    9.1993354    60.466447 
   23400    294.10935   -10544.015            0    -9668.208    636.48331    778.32113    9.1985549    9.1985549    9.1985549    58.530401 
   23500    276.48948   -10501.168            0   -9677.8296   -567.01357    778.33833    9.1986227    9.1986227    9.1986227    51.790478 
   23600    283.71029   -10530.765            0    -9685.924    2089.6126    778.46613    9.1991261    9.1991261    9.1991261     53.32505 
   23700    284.90286   -10538.917            0   -9690.5245    7644.5767    778.75244    9.2002538    9.2002538    9.2002538    71.443155 
   23800    286.38801   -10543.288            0   -9690.4738   -5168.4817    779.19422    9.2019932    9.2019932    9.2019932    49.833921 
   23900    291.67305   -10557.883            0   -9689.3302   -2723.8961    779.37661    9.2027111    9.2027111    9.2027111    69.092791 
   24000    286.45109   -10538.728            0   -9685.7253   -7597.4445    779.49114    9.2031619    9.2031619    9.2031619    52.860957 
Loop time of 16.9771 on 16 procs for 1000 steps with 1000 atoms

Performance: 5.089 ns/day, 4.716 hours/ns, 58.903 timesteps/s
94.7% CPU use with 16 MPI tasks x no OpenMP threads

MPI task timing breakdown:
Section |  min time  |  avg time  |  max time  |%varavg| %total
---------------------------------------------------------------
Pair    | 1.6876     | 1.7779     | 2.0543     |   6.1 | 10.47
Neigh   | 0.68468    | 0.71724    | 0.81228    |   3.4 |  4.22
Comm    | 0.75954    | 1.1308     | 1.2526     |  10.2 |  6.66
Output  | 8.8448     | 9.1279     | 13.312     |  35.8 | 53.77
Modify  | 0.029649   | 4.2143     | 4.4978     |  52.6 | 24.82
Other   |            | 0.008962   |            |       |  0.05

Nlocal:    62.5 ave 67 max 58 min
Histogram: 1 1 2 2 2 1 3 3 0 1
Nghost:    1875.75 ave 1891 max 1860 min
Histogram: 2 0 2 1 3 1 3 2 1 1
Neighs:    0 ave 0 max 0 min
Histogram: 16 0 0 0 0 0 0 0 0 0
FullNghs:  18918.6 ave 20072 max 17354 min
Histogram: 1 1 1 2 2 1 1 1 3 3

Total # of neighbors = 302698
Ave neighs/atom = 302.698
Neighbor list builds = 1000
Dangerous builds not checked
Setting up Verlet run ...
  Unit style    : real
  Current step  : 24000
  Time step     : 1
Per MPI rank memory allocation (min/avg/max) = 4.578 | 4.579 | 4.58 Mbytes
Step Temp E_pair E_mol TotEng Press Volume Lx Ly Lz S/CPU 
   24000    286.45109   -10538.728            0   -9685.7253   -7597.4445    779.49114    9.2031619    9.2031619    9.2031619            0 
   24100    292.97163   -10553.323            0   -9680.9038    4665.2386    779.58839    9.2035446    9.2035446    9.2035446    63.590414 
   24200    298.42536   -10562.026            0   -9673.3663    1950.3042    780.04827     9.205354     9.205354     9.205354    58.599109 
   24300    287.27761   -10520.226            0   -9664.7625    6488.4305    781.02283     9.209186     9.209186     9.209186    54.329057 
   24400    297.51599   -10542.258            0   -9656.3058    671.86736    782.51899    9.2150627    9.2150627    9.2150627    69.067658 
   24500     292.4153   -10516.115            0   -9645.3518   -12226.543    783.60092    9.2193078    9.2193078    9.2193078    59.423388 
   24600    297.72424    -10523.87            0   -9637.2983   -2675.4959    784.34768    9.2222354    9.2222354    9.2222354    57.251916 
   24700    294.91247    -10509.68            0   -9631.4812   -4254.9647    785.30361    9.2259805    9.2259805    9.2259805     53.36397 
   24800    295.37462   -10505.509            0   -9625.9337   -14185.039    786.31256    9.2299299    9.2299299    9.2299299    66.770643 
   24900    298.00155   -10509.567            0   -9622.1689     41.30335    786.45917    9.2305035    9.2305035    9.2305035    49.379334 
   25000    300.44673   -10513.313            0   -9618.6343   -8175.7607    785.92454    9.2284115    9.2284115    9.2284115    67.539052 
Loop time of 16.8745 on 16 procs for 1000 steps with 1000 atoms

Performance: 5.120 ns/day, 4.687 hours/ns, 59.261 timesteps/s
94.7% CPU use with 16 MPI tasks x no OpenMP threads

MPI task timing breakdown:
Section |  min time  |  avg time  |  max time  |%varavg| %total
---------------------------------------------------------------
Pair    | 1.5629     | 1.7504     | 1.9261     |   6.1 | 10.37
Neigh   | 0.68601    | 0.71164    | 0.77479    |   2.5 |  4.22
Comm    | 0.86893    | 1.1082     | 1.3186     |   9.3 |  6.57
Output  | 8.9286     | 9.2031     | 13.261     |  34.5 | 54.54
Modify  | 0.033994   | 4.0922     | 4.3664     |  51.8 | 24.25
Other   |            | 0.008935   |            |       |  0.05

Nlocal:    62.5 ave 67 max 57 min
Histogram: 1 0 3 2 1 0 1 3 1 4
Nghost:    1846.19 ave 1868 max 1823 min
Histogram: 1 0 2 2 3 1 4 0 1 2
Neighs:    0 ave 0 max 0 min
Histogram: 16 0 0 0 0 0 0 0 0 0
FullNghs:  18800.9 ave 20215 max 16885 min
Histogram: 1 0 3 2 1 1 1 2 3 2

Total # of neighbors = 300814
Ave neighs/atom = 300.814
Neighbor list builds = 1000
Dangerous builds not checked
Setting up Verlet run ...
  Unit style    : real
  Current step  : 25000
  Time step     : 1
Per MPI rank memory allocation (min/avg/max) = 4.578 | 4.579 | 4.58 Mbytes
Step Temp E_pair E_mol TotEng Press Volume Lx Ly Lz S/CPU 
   25000    300.44673   -10513.313            0   -9618.6343   -8175.7607    785.92454    9.2284115    9.2284115    9.2284115            0 
   25100    301.41101   -10511.993            0    -9614.442   -6934.7627    784.92843     9.224511     9.224511     9.224511    73.469804 
   25200    294.37656   -10488.835            0   -9612.2321      2431.13      783.724    9.2197904    9.2197904    9.2197904    57.898523 
   25300    300.05724   -10504.367            0    -9610.848   -11886.997    782.92985    9.2166752    9.2166752    9.2166752    72.683095 
   25400    303.96407   -10513.359            0   -9608.2057    7252.5671     782.2037    9.2138249    9.2138249    9.2138249    57.501795 
   25500    308.50915   -10523.524            0   -9604.8366    8962.7162    781.74854    9.2120374    9.2120374    9.2120374      59.9859 
   25600    311.31669   -10529.568            0   -9602.5205    11348.484    781.47879    9.2109777    9.2109777    9.2109777     73.43797 
   25700    297.45291   -10485.048            0   -9599.2842    5256.3916    781.54294    9.2112298    9.2112298    9.2112298    59.414153 
   25800    306.13007   -10508.401            0   -9596.7976    11359.809    782.00777    9.2130555    9.2130555    9.2130555    63.751644 
   25900    297.04703   -10479.279            0   -9594.7233    7914.2066    782.53894     9.215141     9.215141     9.215141    52.660686 
   26000    297.34084   -10475.874            0   -9590.4438   -1989.2732    783.21892    9.2178094    9.2178094    9.2178094    68.268564 
Loop time of 15.8474 on 16 procs for 1000 steps with 1000 atoms

Performance: 5.452 ns/day, 4.402 hours/ns, 63.102 timesteps/s
94.8% CPU use with 16 MPI tasks x no OpenMP threads

MPI task timing breakdown:
Section |  min time  |  avg time  |  max time  |%varavg| %total
---------------------------------------------------------------
Pair    | 1.6237     | 1.733      | 1.8707     |   5.1 | 10.94
Neigh   | 0.66912    | 0.706      | 0.75659    |   2.9 |  4.46
Comm    | 0.93716    | 1.1241     | 1.2585     |   8.4 |  7.09
Output  | 8.2281     | 8.4828     | 12.243     |  33.3 | 53.53
Modify  | 0.030739   | 3.7925     | 4.0476     |  49.9 | 23.93
Other   |            | 0.008918   |            |       |  0.06

Nlocal:    62.5 ave 68 max 55 min
Histogram: 1 0 0 4 2 1 2 2 3 1
Nghost:    1864 ave 1888 max 1848 min
Histogram: 2 3 1 3 2 0 2 1 1 1
Neighs:    0 ave 0 max 0 min
Histogram: 16 0 0 0 0 0 0 0 0 0
FullNghs:  18840.8 ave 20725 max 16371 min
Histogram: 1 0 0 4 2 2 1 3 2 1

Total # of neighbors = 301452
Ave neighs/atom = 301.452
Neighbor list builds = 1000
Dangerous builds not checked
Setting up Verlet run ...
  Unit style    : real
  Current step  : 26000
  Time step     : 1
Per MPI rank memory allocation (min/avg/max) = 4.578 | 4.579 | 4.58 Mbytes
Step Temp E_pair E_mol TotEng Press Volume Lx Ly Lz S/CPU 
   26000    297.34084   -10475.874            0   -9590.4438   -1989.2732    783.21892    9.2178094    9.2178094    9.2178094            0 
   26100    298.13153   -10476.138            0   -9588.3537    4653.6467    783.79407    9.2200652    9.2200652    9.2200652    53.482196 
   26200    299.90132    -10476.72            0   -9583.6652    7957.3783    784.64188    9.2233884    9.2233884    9.2233884    63.345104 
   26300    311.10517   -10504.752            0   -9578.3344    5245.6795    785.66948    9.2274131    9.2274131    9.2274131    74.123458 
   26400     297.8153   -10457.923            0   -9571.0795     5781.632    787.02214    9.2327055    9.2327055    9.2327055    59.618607 
   26500    305.47605   -10473.038            0   -9563.3828    9939.1195    788.57361    9.2387684    9.2387684    9.2387684    64.891164 
   26600    304.30244   -10462.609            0   -9556.4485    11387.845    789.89516    9.2439265    9.2439265    9.2439265    52.258086 
   26700    305.32512   -10454.318            0   -9545.1117   -19664.529    791.02823    9.2483444    9.2483444    9.2483444    62.935115 
   26800    301.90718   -10432.587            0   -9533.5593   -5179.0405    791.01333    9.2482863    9.2482863    9.2482863    66.935008 
   26900    313.49535   -10457.025            0   -9523.4895   -10191.533    790.35708    9.2457281    9.2457281    9.2457281    55.196059 
   27000    298.87343   -10403.861            0   -9513.8668    804.31144    789.30595    9.2416275    9.2416275    9.2416275     70.49024 
Loop time of 16.2428 on 16 procs for 1000 steps with 1000 atoms

Performance: 5.319 ns/day, 4.512 hours/ns, 61.566 timesteps/s
94.7% CPU use with 16 MPI tasks x no OpenMP threads

MPI task timing breakdown:
Section |  min time  |  avg time  |  max time  |%varavg| %total
---------------------------------------------------------------
Pair    | 1.5733     | 1.7016     | 1.9387     |   7.0 | 10.48
Neigh   | 0.64784    | 0.69844    | 0.77671    |   3.5 |  4.30
Comm    | 0.79996    | 1.1155     | 1.281      |  11.2 |  6.87
Output  | 8.6897     | 8.9432     | 12.683     |  32.3 | 55.06
Modify  | 0.034969   | 3.7753     | 4.029      |  49.7 | 23.24
Other   |            | 0.008782   |            |       |  0.05

Nlocal:    62.5 ave 70 max 56 min
Histogram: 1 1 2 2 3 4 1 0 0 2
Nghost:    1851.69 ave 1872 max 1832 min
Histogram: 2 0 3 2 1 1 3 1 2 1
Neighs:    0 ave 0 max 0 min
Histogram: 16 0 0 0 0 0 0 0 0 0
FullNghs:  18688.9 ave 21122 max 16711 min
Histogram: 1 2 1 2 5 3 0 0 0 2

Total # of neighbors = 299022
Ave neighs/atom = 299.022
Neighbor list builds = 1000
Dangerous builds not checked
Setting up Verlet run ...
  Unit style    : real
  Current step  : 27000
  Time step     : 1
Per MPI rank memory allocation (min/avg/max) = 4.578 | 4.579 | 4.58 Mbytes
Step Temp E_pair E_mol TotEng Press Volume Lx Ly Lz S/CPU 
   27000    298.87343   -10403.861            0   -9513.8668    804.31144    789.30595    9.2416275    9.2416275    9.2416275            0 
   27100    309.84754   -10429.903            0   -9507.2301   -356.67218    788.36723    9.2379624    9.2379624    9.2379624    55.626197 
   27200    301.41524   -10399.446            0   -9501.8829    6234.5204    787.58436    9.2349035    9.2349035    9.2349035    54.271402 
   27300    323.38222    -10463.62            0   -9500.6428   -4342.1694    787.12577    9.2331107    9.2331107    9.2331107    52.854677 
   27400    309.40925   -10422.004            0   -9500.6361   -11215.879    786.79273    9.2318083    9.2318083    9.2318083    67.656411 
   27500    303.25474   -10407.369            0   -9504.3277    690.37778    786.21257    9.2295387    9.2295387    9.2295387    62.443462 
   27600    304.59633   -10418.597            0   -9511.5615      3921.02    785.48635    9.2266961    9.2266961    9.2266961    55.012972 
   27700    297.39699   -10406.212            0   -9520.6145    2402.6296    784.95096    9.2245993    9.2245993    9.2245993     68.95434 
   27800    311.66105   -10461.576            0   -9533.5023    15696.693    784.82223     9.224095     9.224095     9.224095    59.886527 
   27900    304.25102   -10454.786            0   -9548.7786   -9289.8145    785.36179    9.2262083    9.2262083    9.2262083    63.661095 
   28000    302.68298    -10464.18            0   -9562.8414    5671.2845    785.86239    9.2281682    9.2281682    9.2281682    59.781871 
Loop time of 16.7932 on 16 procs for 1000 steps with 1000 atoms

Performance: 5.145 ns/day, 4.665 hours/ns, 59.548 timesteps/s
[...]
  922700    320.44425   -11188.765            0   -10234.537     19553.45    792.91582    9.2556948    9.2556948    9.2556948    74.843106 
  922800    319.21684   -11184.732            0   -10234.159    801.70643    793.32901    9.2573023    9.2573023    9.2573023    53.098928 
  922900    316.38429   -11177.181            0   -10235.043     10748.55    794.52491    9.2619516    9.2619516    9.2619516    68.518074 
  923000    297.65484   -11123.989            0   -10237.623    4600.1742     796.4723    9.2695125    9.2695125    9.2695125    55.432347 
  923100    296.39581   -11125.409            0   -10242.793   -7891.5393    798.85467    9.2787454    9.2787454    9.2787454    76.805619 
  923200    312.65411   -11181.037            0   -10250.006   -6211.2333     801.2024    9.2878262    9.2878262    9.2878262    73.694091 
  923300    303.15545   -11158.578            0   -10255.833   -20887.912    802.97173    9.2946581    9.2946581    9.2946581    51.456212 
  923400     306.8059   -11175.947            0   -10262.331   -26012.121    803.59694    9.2970698    9.2970698    9.2970698    74.202574 
  923500     307.2672    -11183.94            0   -10268.951   -20346.224    802.64815    9.2934094    9.2934094    9.2934094    58.447132 
  923600    298.27488    -11165.01            0   -10276.798   -4461.7844    800.24323    9.2841184    9.2841184    9.2841184    73.099238 
  923700    311.33986    -11211.19            0   -10284.073   -6557.1148    796.99537    9.2715412    9.2715412    9.2715412    62.087177 
  923800    311.30447   -11216.411            0     -10289.4    7357.9822    793.68873    9.2587012    9.2587012    9.2587012    71.813867 
  923900    317.15145   -11240.768            0   -10296.345    19519.862    791.17484    9.2489158    9.2489158    9.2489158    57.126239 
  924000    303.91238   -11207.136            0   -10302.137    26746.387    790.09065    9.2446891    9.2446891    9.2446891    59.296782 
  924100    310.63032   -11235.005            0       -10310    17165.075    790.67926    9.2469842    9.2469842    9.2469842    72.707496 
  924200    315.86078   -11257.688            0   -10317.109     5613.995    792.58118    9.2543926    9.2543926    9.2543926     49.49183 
  924300    300.85311   -11217.678            0   -10321.789    3751.0159    795.28088    9.2648882    9.2648882    9.2648882    72.349167 
  924400    297.41296   -11212.502            0   -10326.857   -1817.3444    798.19517    9.2761914    9.2761914    9.2761914    53.047958 
  924500    298.80108    -11219.93            0   -10330.151   -21855.182    800.68372    9.2858215    9.2858215    9.2858215    72.509598 
  924600    301.08352   -11228.692            0   -10332.117   -15450.043    802.03152    9.2910289    9.2910289    9.2910289    54.467088 
  924700    296.55461   -11217.063            0   -10333.974   -26314.822    802.06232    9.2911478    9.2911478    9.2911478     51.04846 
  924800    301.46571   -11232.867            0   -10335.154    -12169.87    800.69633    9.2858703    9.2858703    9.2858703    43.459916 
  924900      310.116   -11258.788            0   -10335.316   -7883.3178     798.2899    9.2765583    9.2765583    9.2765583    77.186579 
  925000    287.69312   -11190.051            0    -10333.35    2283.0665    795.46162      9.26559      9.26559      9.26559    59.156472 
  925100    294.32094   -11208.441            0   -10332.003       5907.6    792.81176    9.2552899    9.2552899    9.2552899    71.782914 
  925200    308.41952   -11247.781            0   -10329.361    21676.374    791.03868    9.2483851    9.2483851    9.2483851    68.862639 
  925300    288.32602   -11182.818            0   -10324.232    10889.788    790.75591     9.247283     9.247283     9.247283    45.136091 
  925400    296.01956   -11201.282            0   -10319.787    11858.967    791.81528    9.2514107    9.2514107    9.2514107    73.622255 
  925500    302.78874   -11215.377            0   -10313.724    343.72947    793.92429    9.2596171    9.2596171    9.2596171    58.006637 
  925600    307.59443   -11219.904            0    -10303.94   -1866.1399    796.62527    9.2701058    9.2701058    9.2701058       74.939 
  925700    312.60878   -11220.438            0   -10289.542   -9153.1005    799.41029    9.2808961    9.2808961    9.2808961    48.286612 
  925800    304.97699   -11181.721            0   -10273.552   -10073.241    801.63898    9.2895129    9.2895129    9.2895129    67.523358 
  925900    311.76616   -11189.669            0   -10261.283   -25376.013    803.07904    9.2950721    9.2950721    9.2950721    61.125391 
  926000    308.17884   -11167.478            0   -10249.774   -11406.037    803.38549    9.2962543    9.2962543    9.2962543    66.048632 
  926100    317.15734   -11188.073            0   -10243.632   -11482.358     802.5155    9.2928974    9.2928974    9.2928974    63.260159 
  926200    315.28208   -11178.431            0   -10239.575   -4393.9535    800.84137     9.286431     9.286431     9.286431    67.439629 
  926300    323.03061   -11201.987            0   -10240.057   -10050.292    798.53341    9.2775015    9.2775015    9.2775015    77.220761 
  926400    309.29259   -11163.045            0   -10242.024    8742.3169    795.84958     9.267096     9.267096     9.267096    51.968391 
  926500    304.19098   -11152.123            0   -10246.294    10203.259    793.60841    9.2583889    9.2583889    9.2583889    70.404972 
  926600    310.31753    -11178.55            0   -10254.477    16312.837    792.37741    9.2535994    9.2535994    9.2535994     56.73747 
  926700    302.74742   -11164.612            0   -10263.082    14779.121    792.43541    9.2538252    9.2538252    9.2538252    71.597602 
  926800    303.96135   -11179.481            0   -10274.337    14375.713    793.65568    9.2585728    9.2585728    9.2585728    48.564843 
  926900     308.4916   -11203.305            0    -10284.67    1618.9707    795.78459    9.2668438    9.2668438    9.2668438    70.237201 
  927000    301.17769   -11188.791            0   -10291.936   -3745.8521    798.36867    9.2768634    9.2768634    9.2768634    62.228285 
  927100    309.21336   -11218.421            0   -10297.636   -9357.6461    800.76687     9.286143     9.286143     9.286143    67.134749 
  927200     295.3543   -11179.922            0   -10300.407   -18405.211    802.38278    9.2923851    9.2923851    9.2923851    76.530955 
  927300    295.67864   -11183.264            0   -10302.783     -15032.4    802.65793    9.2934471    9.2934471    9.2934471    51.766492 
  927400     293.5597   -11178.634            0   -10304.463   -11205.658    801.58649    9.2893102    9.2893102    9.2893102    76.250399 
  927500    302.51539   -11207.348            0   -10306.509    -8225.215    799.45518    9.2810698    9.2810698    9.2810698    72.313141 
  927600     304.9598   -11215.901            0   -10307.782   -2716.8319    796.60098    9.2700116    9.2700116    9.2700116     57.50338 
  927700    299.43584   -11198.378            0   -10306.709    6294.7193    793.67004    9.2586286    9.2586286    9.2586286    77.038441 
  927800    307.99855   -11224.056            0   -10306.889    9360.8143    791.47948    9.2501027    9.2501027    9.2501027    56.280399 
  927900    311.00117    -11233.93            0   -10307.821    21174.532     790.5958    9.2466588    9.2466588    9.2466588    77.371153 
  928000     295.1429    -11187.62            0   -10308.735    16466.617    791.22489    9.2491108    9.2491108    9.2491108    55.953829 
  928100    301.53481   -11209.384            0   -10311.465    16672.066    793.13317    9.2565405    9.2565405    9.2565405     70.36936 
  928200     301.8394   -11214.003            0   -10315.177    2044.0449    795.82918    9.2670169    9.2670169    9.2670169    59.993521 
  928300    299.16603   -11210.141            0   -10319.276   -8204.8491    798.72084    9.2782272    9.2782272    9.2782272    70.311535 
  928400    291.53596   -11189.696            0   -10321.552   -16394.737    800.88503    9.2865997    9.2865997    9.2865997    74.023678 
  928500    300.30199   -11221.898            0    -10327.65   -14622.441     801.6273    9.2894678    9.2894678    9.2894678    58.837704 
  928600    298.48665   -11221.995            0   -10333.153   -18575.292    801.27638    9.2881121    9.2881121    9.2881121    72.964306 
  928700    290.16757   -11203.769            0     -10339.7   -15725.111    799.86688    9.2826627    9.2826627    9.2826627    54.005977 
  928800    294.39287    -11225.63            0   -10348.978   -4022.0797    797.54473     9.273671     9.273671     9.273671     67.78056 
  928900    292.16361   -11227.839            0   -10357.825    3518.4796    794.84763    9.2632054    9.2632054    9.2632054    45.096364 
  929000    299.39601   -11260.216            0   -10368.666    15753.483    792.55042    9.2542728    9.2542728    9.2542728    75.347933 
  929100     289.3799   -11239.601            0   -10377.877    13507.361    791.17587    9.2489197    9.2489197    9.2489197    56.519095 
  929200    298.71932   -11276.357            0   -10386.822    16320.237    790.95616    9.2480635    9.2480635    9.2480635    54.831434 
  929300    286.28835   -11244.705            0   -10392.188    13730.908    791.79969    9.2513499    9.2513499    9.2513499    69.823294 
  929400    277.64055   -11222.906            0    -10396.14    7844.2997    793.36087    9.2574262    9.2574262    9.2574262    51.797853 
  929500    289.06141   -11259.413            0   -10398.637   -2842.6146    795.17719    9.2644855    9.2644855    9.2644855     74.77952 
  929600    275.00775   -11216.111            0   -10397.184    -10639.94     796.8026    9.2707936    9.2707936    9.2707936    50.251865 
  929700    290.00848   -11256.329            0   -10392.733   -11463.244    797.73335     9.274402     9.274402     9.274402    72.960505 
  929800    294.28375   -11261.897            0   -10385.571   -13500.644    797.88426    9.2749868    9.2749868    9.2749868    60.079159 
  929900    290.21965    -11236.52            0   -10372.295   -1682.5371    797.37523    9.2730139    9.2730139    9.2730139    67.310375 
  930000    295.47744   -11237.031            0    -10357.15    6768.6238    796.62073    9.2700882    9.2700882    9.2700882    63.165839 
  930100    302.16321   -11242.704            0   -10342.914   -1139.0029    795.86685    9.2671631    9.2671631    9.2671631    61.339701 
  930200    295.24867   -11210.949            0   -10331.749    7602.1795    795.15328    9.2643926    9.2643926    9.2643926    71.404373 
  930300    311.78066   -11253.208            0   -10324.779    3798.7908    794.84987    9.2632141    9.2632141    9.2632141    60.157209 
  930400    306.23795   -11231.812            0   -10319.888    6562.5687    794.87621    9.2633164    9.2633164    9.2633164    65.644561 
  930500    299.61738   -11209.283            0   -10317.073    7162.8553    795.02004    9.2638751    9.2638751    9.2638751    52.296008 
  930600    308.35848   -11235.036            0   -10316.797   -1011.8427    795.52654     9.265842     9.265842     9.265842    65.502113 
  930700    296.30107   -11196.524            0    -10314.19    2116.9569    796.33824    9.2689924    9.2689924    9.2689924    45.275191 
  930800    301.21543   -11210.377            0   -10313.408     1899.305    797.38233    9.2730415    9.2730415    9.2730415    80.384104 
  930900    300.91614   -11208.074            0   -10311.997   -511.35008    798.39631    9.2769704    9.2769704    9.2769704    61.397729 
  931000    304.87046   -11218.863            0   -10311.011   -3469.1225    799.12811     9.279804     9.279804     9.279804    60.743462 
  931100    298.33811   -11197.832            0   -10309.432   -6755.9185    799.16709    9.2799549    9.2799549    9.2799549    53.923556 
  931200    294.06195   -11183.076            0    -10307.41    -4012.364    798.59598    9.2777438    9.2777438    9.2777438    56.099758 
  931300    302.85912   -11207.739            0   -10305.876   -3631.2669    797.70667    9.2742986    9.2742986    9.2742986    67.482342 
  931400    310.27078   -11227.985            0   -10304.052    1858.9078    796.66406    9.2702563    9.2702563    9.2702563    54.498371 
  931500    306.04727   -11213.163            0   -10301.807    10077.903    795.75647    9.2667346    9.2667346    9.2667346    70.078316 
  931600    294.03582   -11174.203            0   -10298.614    9727.6488    795.40852    9.2653838    9.2653838    9.2653838    53.299474 
  931700    301.67193   -11196.189            0   -10297.861    7056.1206    795.45811    9.2655763    9.2655763    9.2655763    71.104354 
  931800    300.47612   -11191.395            0   -10296.629     6783.635     795.8383    9.2670523    9.2670523    9.2670523    54.910069 
  931900    300.42424   -11191.239            0   -10296.627   -520.77336    796.44904    9.2694222    9.2694222    9.2694222    55.897226 
  932000    305.10753   -11204.601            0   -10296.043   -7347.6946    797.08519    9.2718895    9.2718895    9.2718895    57.044097 
  932100    305.63537   -11208.389            0   -10298.259   -5808.3079     797.5046    9.2735154    9.2735154    9.2735154    51.951912 
  932200    308.96423   -11221.508            0   -10301.466   -1089.6135    797.70219    9.2742812    9.2742812    9.2742812    63.765196 
  932300    305.82835   -11216.732            0   -10306.028   -6134.4743    797.58724    9.2738357    9.2738357    9.2738357    54.928197 
  932400    291.58354   -11180.493            0   -10312.207   -6173.2754    797.11141    9.2719912    9.2719912    9.2719912    40.463246 
  932500    303.78961   -11225.762            0   -10321.128    9152.0113    796.39845    9.2692259    9.2692259    9.2692259    65.292462 
  932600    299.07117   -11220.057            0   -10329.474    6931.3961     795.8744    9.2671924    9.2671924    9.2671924    58.583755 
  932700    294.49566   -11214.745            0   -10337.787    -750.2005    795.67613    9.2664228    9.2664228    9.2664228    64.486895 
  932800    288.50107   -11204.775            0   -10345.668    6044.4846    795.61133    9.2661712    9.2661712    9.2661712    66.862937 
  932900    293.24279   -11226.039            0   -10352.812    2581.4991    795.73605    9.2666554    9.2666554    9.2666554    53.274937 
  933000    291.16523   -11224.288            0   -10357.248    2169.4078    796.05393    9.2678892    9.2678892    9.2678892    76.516785 
  933100    295.09461   -11239.827            0   -10361.085   -205.53211    796.40069    9.2692346    9.2692346    9.2692346    54.790216 
  933200      297.102   -11248.681            0   -10363.962   -6314.8194    796.66495    9.2702597    9.2702597    9.2702597    68.992688 
  933300    285.41881    -11211.87            0   -10361.942   -1352.6095    796.76128    9.2706334    9.2706334    9.2706334    59.578903 
  933400    289.21562    -11221.47            0   -10360.235   -6680.0302    796.62442    9.2701026    9.2701026    9.2701026    56.016001 
  933500    294.72814   -11233.537            0   -10355.887    313.54741    796.26497    9.2687081    9.2687081    9.2687081    62.378975 
  933600    304.65681   -11256.035            0   -10348.819     -1996.02    795.83877    9.2670541    9.2670541    9.2670541    61.954356 
  933700     301.5498   -11235.736            0   -10337.773    4839.1375      795.358    9.2651876    9.2651876    9.2651876    75.931218 
  933800    297.71837   -11211.635            0    -10325.08   -2668.0469    795.11016    9.2642252    9.2642252    9.2642252    55.323288 
  933900    306.83887   -11225.411            0   -10311.697    8719.3296    795.14306    9.2643529    9.2643529    9.2643529    69.789363 
  934000    298.14795   -11185.721            0   -10297.888    6949.8274    795.70809    9.2665468    9.2665468    9.2665468    50.396103 
  934100     304.7886   -11195.145            0   -10287.537    781.50412    796.55674      9.26984      9.26984      9.26984    69.434676 
  934200    319.76458   -11233.372            0   -10281.168   -2796.5786     797.6242     9.273979     9.273979     9.273979    53.466325 
  934300     311.8514   -11205.011            0    -10276.37   -7534.8053    798.89054    9.2788843    9.2788843    9.2788843    62.102056 
  934400    304.69472   -11181.305            0   -10273.976   -6829.5824    799.84039    9.2825603    9.2825603    9.2825603    69.209576 
  934500    301.82289   -11172.071            0   -10273.294   -9681.9477    800.21411    9.2840058    9.2840058    9.2840058     54.85764 
  934600    301.48294   -11171.291            0   -10273.526   -7845.1072    799.80771    9.2824338    9.2824338    9.2824338    59.874215 
  934700    298.36825   -11163.162            0   -10274.672   -7645.6742    798.73541    9.2782837    9.2782837    9.2782837    53.052028 
  934800     295.1761   -11156.276            0   -10277.292   -848.03002    797.23819    9.2724827    9.2724827    9.2724827    78.769319 
  934900    292.02328   -11149.471            0   -10279.876   -2904.9791    795.63432    9.2662604    9.2662604    9.2662604    60.678357 
  935000    306.77305    -11197.68            0   -10284.162    9030.0547    794.09089    9.2602648    9.2602648    9.2602648    70.793661 
  935100    303.97207   -11195.709            0   -10290.532    13021.904    793.08507    9.2563533    9.2563533    9.2563533    63.516529 
  935200    308.56916   -11215.548            0   -10296.682    9904.1091    792.89763    9.2556241    9.2556241    9.2556241    53.731693 
  935300    301.81531   -11201.987            0   -10303.232    14735.398    793.55154    9.2581678    9.2581678    9.2581678      61.6985 
  935400    297.23088   -11195.259            0   -10310.156    1455.5416    794.96231    9.2636509    9.2636509    9.2636509    60.968266 
  935500    312.30604   -11248.259            0   -10318.265   -755.80128    796.90707    9.2711988    9.2711988    9.2711988    72.929124 
  935600    294.17039   -11199.371            0   -10323.382   -6471.4419    798.97316    9.2792041    9.2792041    9.2792041    51.922967 
  935700    292.48813    -11199.13            0   -10328.151   -18930.256    800.71753    9.2859523    9.2859523    9.2859523    75.435918 
  935800     277.9767   -11158.844            0   -10331.077   -10631.886    801.38157    9.2885185    9.2885185    9.2885185    59.362245 
  935900    290.90594   -11200.204            0   -10333.935   -24625.196     800.8334    9.2864001    9.2864001    9.2864001    58.434374 
  936000    296.62431   -11218.957            0    -10335.66   -13316.669    798.97648     9.279217     9.279217     9.279217    73.835755 
Loop time of 1642.67 on 16 procs for 100000 steps with 1000 atoms

Performance: 5.260 ns/day, 4.563 hours/ns, 60.877 timesteps/s
94.6% CPU use with 16 MPI tasks x no OpenMP threads

MPI task timing breakdown:
Section |  min time  |  avg time  |  max time  |%varavg| %total
---------------------------------------------------------------
Pair    | 144.25     | 152.37     | 172.59     |  54.6 |  9.28
Neigh   | 66.487     | 69.523     | 77.586     |  32.0 |  4.23
Comm    | 77.114     | 105.37     | 115.87     |  89.3 |  6.41
Output  | 887.79     | 914.64     | 1311.4     | 338.7 | 55.68
Modify  | 3.0797     | 399.89     | 426.75     | 512.4 | 24.34
Other   |            | 0.8676     |            |       |  0.05

Nlocal:    62.5 ave 66 max 57 min
Histogram: 1 0 2 0 2 2 3 2 2 2
Nghost:    1833.19 ave 1847 max 1815 min
Histogram: 1 1 1 2 0 4 1 2 1 3
Neighs:    0 ave 0 max 0 min
Histogram: 16 0 0 0 0 0 0 0 0 0
FullNghs:  18437.2 ave 19606 max 16767 min
Histogram: 1 0 2 0 2 2 4 1 2 2

Total # of neighbors = 294996
Ave neighs/atom = 294.996
Neighbor list builds = 100000
Dangerous builds not checked
Total wall time: 4:16:10
