LAMMPS (16 Mar 2018)
Reading data file ...
  orthogonal box = (-4.71626 -4.71626 -4.71626) to (4.71626 4.71626 4.71626)
  2 by 2 by 4 MPI processor grid
  reading atoms ...
  1000 atoms
Reading potential file /home/fs01/ajm529/lammps-16Mar18/potentials/sw_potentials/AG/eps2.23.sw with DATE: 2008-01-29
Neighbor list info ...
  update every 1 steps, delay 0 steps, check no
  max neighbors/atom: 2000, page size: 100000
  master list distance cutoff = 3.836
  ghost atom cutoff = 3.836
  binsize = 1.918, bins = 5 5 5
  1 neighbor lists, perpetual/occasional/extra = 1 0 0
  (1) pair sw, perpetual
      attributes: full, newton on
      pair build: full/bin/atomonly
      stencil: full/bin/3d
      bin: standard
Setting up Verlet run ...
  Unit style    : real
  Current step  : 0
  Time step     : 1
Per MPI rank memory allocation (min/avg/max) = 3.516 | 3.519 | 3.52 Mbytes
Step Temp E_pair E_mol TotEng Press Volume Lx Ly Lz S/CPU 
       0          300   -10051.591            0   -9158.2423   -28432.134     839.2329    9.4325149    9.4325149    9.4325149            0 
     100    345.04519   -10192.221            0   -9164.7349   -36970.631    837.43772    9.4257845    9.4257845    9.4257845    36.482784 
     200     350.7651   -10225.362            0   -9180.8431   -30502.187    832.27431    9.4063723    9.4063723    9.4063723     53.11316 
     300    340.61586   -10220.218            0   -9205.9222   -21434.261    824.84048    9.3782827    9.3782827    9.3782827    51.454831 
     400    328.23521   -10208.278            0   -9230.8493   -22882.042    816.09951    9.3450373    9.3450373    9.3450373    39.203646 
     500    340.71245   -10266.156            0   -9251.5727     4617.002    807.11821    9.3106296    9.3106296    9.3106296     53.17059 
     600    331.56941   -10256.329            0   -9268.9724    8423.3779    799.25576    9.2802981    9.2802981    9.2802981    34.314344 
     700    333.06535   -10280.205            0   -9288.3934   -860.61952    793.22258    9.2568883    9.2568883    9.2568883    36.789522 
     800    328.49854   -10287.051            0   -9308.8388    6020.2349    788.86276    9.2398975    9.2398975    9.2398975    56.489882 
     900     325.9602   -10303.445            0   -9332.7912    15327.019    786.05416    9.2289188    9.2289188    9.2289188    47.631591 
    1000    323.99091    -10320.56            0     -9355.77    14513.707    784.60001    9.2232243    9.2232243    9.2232243    47.615293 
Loop time of 22.601 on 16 procs for 1000 steps with 1000 atoms

Performance: 3.823 ns/day, 6.278 hours/ns, 44.246 timesteps/s
94.3% CPU use with 16 MPI tasks x no OpenMP threads

MPI task timing breakdown:
Section |  min time  |  avg time  |  max time  |%varavg| %total
---------------------------------------------------------------
Pair    | 1.451      | 1.6342     | 1.8127     |   8.6 |  7.23
Neigh   | 0.61745    | 0.67542    | 0.73717    |   4.0 |  2.99
Comm    | 0.61225    | 0.83509    | 1.0761     |  15.3 |  3.69
Output  | 11.733     | 12.216     | 19.394     |  53.0 | 54.05
Modify  | 0.053035   | 7.2317     | 7.7145     |  68.9 | 32.00
Other   |            | 0.008753   |            |       |  0.04

Nlocal:    62.5 ave 69 max 59 min
Histogram: 1 3 3 0 5 2 0 1 0 1
Nghost:    1851.81 ave 1871 max 1824 min
Histogram: 1 0 0 3 1 4 1 2 2 2
Neighs:    0 ave 0 max 0 min
Histogram: 16 0 0 0 0 0 0 0 0 0
FullNghs:  18822.5 ave 21060 max 17822 min
Histogram: 3 4 0 4 3 1 0 0 0 1

Total # of neighbors = 301160
Ave neighs/atom = 301.16
Neighbor list builds = 1000
Dangerous builds not checked
Setting up Verlet run ...
  Unit style    : real
  Current step  : 1000
  Time step     : 1
Per MPI rank memory allocation (min/avg/max) = 3.52 | 4.461 | 4.579 Mbytes
Step Temp E_pair E_mol TotEng Press Volume Lx Ly Lz S/CPU 
    1000    323.99091    -10320.56            0     -9355.77    14513.707    784.60001    9.2232243    9.2232243    9.2232243            0 
    1100    331.75592   -10367.569            0   -9379.6568    24475.539    784.44134    9.2226025    9.2226025    9.2226025    62.135358 
    1200    321.73923   -10360.182            0   -9402.0971    25346.352     785.5179    9.2268196    9.2268196    9.2268196    43.394843 
    1300     318.3259   -10371.642            0   -9423.7215    2013.7318    787.42416    9.2342773    9.2342773    9.2342773    53.515113 
    1400    311.34367    -10370.69            0   -9443.5619    6231.2605    789.50261     9.242395     9.242395     9.242395    52.876973 
    1500    312.06789   -10393.007            0   -9463.7226   -292.40942    791.44414     9.249965     9.249965     9.249965    48.529758 
    1600    301.64196    -10381.26            0   -9483.0215   -2545.1747    793.11739    9.2564791    9.2564791    9.2564791    53.723595 
    1700     317.7693   -10448.326            0   -9502.0634   -8098.9415    794.26868    9.2609558    9.2609558    9.2609558    57.057123 
    1800    311.39629   -10448.639            0   -9521.3537   -4478.8073    794.68666      9.26258      9.26258      9.26258    44.693238 
    1900    307.51395   -10453.731            0    -9538.007    -63.27663    793.95788    9.2597477    9.2597477    9.2597477    49.292241 
    2000    300.63013   -10449.037            0    -9553.812   -15242.467    792.41909    9.2537617    9.2537617    9.2537617    45.790121 
Loop time of 19.7983 on 16 procs for 1000 steps with 1000 atoms

Performance: 4.364 ns/day, 5.500 hours/ns, 50.509 timesteps/s
94.4% CPU use with 16 MPI tasks x no OpenMP threads

MPI task timing breakdown:
Section |  min time  |  avg time  |  max time  |%varavg| %total
---------------------------------------------------------------
Pair    | 1.5309     | 1.6835     | 1.9005     |   8.1 |  8.50
Neigh   | 0.62554    | 0.67566    | 0.74577    |   3.9 |  3.41
Comm    | 0.58956    | 0.87645    | 1.0729     |  14.4 |  4.43
Output  | 11.081     | 11.423     | 16.501     |  38.8 | 57.70
Modify  | 0.051899   | 5.1306     | 5.4736     |  57.9 | 25.91
Other   |            | 0.008747   |            |       |  0.04

Nlocal:    62.5 ave 68 max 57 min
Histogram: 2 2 0 3 2 0 2 1 2 2
Nghost:    1842.69 ave 1866 max 1819 min
Histogram: 2 2 1 1 1 4 2 0 0 3
Neighs:    0 ave 0 max 0 min
Histogram: 16 0 0 0 0 0 0 0 0 0
FullNghs:  18615.4 ave 20349 max 16749 min
Histogram: 2 1 1 0 5 0 2 1 2 2

Total # of neighbors = 297846
Ave neighs/atom = 297.846
Neighbor list builds = 1000
Dangerous builds not checked
Setting up Verlet run ...
  Unit style    : real
  Current step  : 2000
  Time step     : 1
Per MPI rank memory allocation (min/avg/max) = 3.77 | 4.527 | 4.579 Mbytes
Step Temp E_pair E_mol TotEng Press Volume Lx Ly Lz S/CPU 
    2000    300.63013   -10449.037            0    -9553.812   -15242.467    792.41909    9.2537617    9.2537617    9.2537617            0 
    2100    299.02851    -10459.38            0   -9568.9243    -14057.68    789.96036    9.2441808    9.2441808    9.2441808    41.698753 
    2200    303.45377   -10487.447            0    -9583.813   -10723.764    786.83273    9.2319648    9.2319648    9.2319648    46.282908 
    2300    291.57102   -10464.787            0   -9596.5378   -10805.334    783.42935    9.2186348    9.2186348    9.2186348    35.091972 
    2400    296.66944   -10492.301            0   -9608.8701    12844.838    779.64112    9.2037521    9.2037521    9.2037521    60.462964 
    2500    298.80806   -10508.482            0   -9618.6828    14006.364    776.58117    9.1916953    9.1916953    9.1916953    57.731647 
    2600    308.93822   -10547.786            0   -9627.8203    1079.1117    774.42029    9.1831619    9.1831619    9.1831619    53.690253 
    2700    306.94436   -10550.152            0   -9636.1245    23088.244    772.92794    9.1772593    9.1772593    9.1772593    62.220511 
    2800    304.22076   -10550.365            0    -9644.447    12643.229    772.41579    9.1752319    9.1752319    9.1752319    58.064087 
    2900    305.61893   -10561.213            0   -9651.1322    13368.285     772.7347    9.1764944    9.1764944    9.1764944    42.466771 
    3000    292.40314    -10529.13            0   -9658.4038    5885.5567    774.08469    9.1818352    9.1818352    9.1818352     47.70407 
Loop time of 20.4375 on 16 procs for 1000 steps with 1000 atoms

Performance: 4.228 ns/day, 5.677 hours/ns, 48.930 timesteps/s
94.4% CPU use with 16 MPI tasks x no OpenMP threads

MPI task timing breakdown:
Section |  min time  |  avg time  |  max time  |%varavg| %total
---------------------------------------------------------------
Pair    | 1.3019     | 1.4921     | 1.8881     |  13.4 |  7.30
Neigh   | 0.55057    | 0.60958    | 0.73234    |   6.5 |  2.98
Comm    | 0.59169    | 1.1098     | 1.3592     |  20.2 |  5.43
Output  | 11.303     | 11.674     | 17.185     |  41.6 | 57.12
Modify  | 0.031578   | 5.5437     | 5.9154     |  60.4 | 27.13
Other   |            | 0.008276   |            |       |  0.04

Nlocal:    62.5 ave 67 max 55 min
Histogram: 1 0 1 1 2 2 1 2 3 3
Nghost:    1875.56 ave 1905 max 1859 min
Histogram: 5 1 1 2 1 4 0 0 1 1
Neighs:    0 ave 0 max 0 min
Histogram: 16 0 0 0 0 0 0 0 0 0
FullNghs:  19057.5 ave 20465 max 16601 min
Histogram: 1 0 1 2 1 2 1 2 4 2

Total # of neighbors = 304920
Ave neighs/atom = 304.92
Neighbor list builds = 1000
Dangerous builds not checked
Setting up Verlet run ...
  Unit style    : real
  Current step  : 3000
  Time step     : 1
Per MPI rank memory allocation (min/avg/max) = 4.576 | 4.578 | 4.58 Mbytes
Step Temp E_pair E_mol TotEng Press Volume Lx Ly Lz S/CPU 
    3000    292.40314    -10529.13            0   -9658.4038    5885.5567    774.08469    9.1818352    9.1818352    9.1818352            0 
    3100    288.33852   -10523.391            0   -9664.7685    13277.232    776.62635    9.1918735    9.1918735    9.1918735    42.558357 
    3200    284.04275   -10515.466            0   -9669.6351    3762.8098    780.14712    9.2057428    9.2057428    9.2057428    44.096499 
    3300    295.57423   -10554.878            0   -9674.7085   -9353.9091    783.98699    9.2208216    9.2208216    9.2208216    55.338937 
    3400    301.47647   -10574.032            0   -9676.2861   -16503.111     787.0696    9.2328911    9.2328911    9.2328911    46.818906 
    3500    287.21008   -10529.967            0   -9674.7044   -9375.3987     788.8499    9.2398473    9.2398473    9.2398473    52.303433 
    3600     290.5664   -10538.687            0     -9673.43    -16954.33    789.33397    9.2417368    9.2417368    9.2417368    49.838182 
    3700    283.17849   -10511.241            0   -9667.9837   -10906.634    788.38155    9.2380183    9.2380183    9.2380183    56.387809 
    3800    287.52754   -10517.014            0   -9660.8065   -11616.643    786.60252    9.2310643    9.2310643    9.2310643     45.06788 
    3900    291.13029   -10518.516            0   -9651.5796   -5939.4498    784.17961    9.2215767    9.2215767    9.2215767    53.607235 
    4000    301.73479   -10538.415            0   -9639.9001    3027.4348    781.73393      9.21198      9.21198      9.21198    46.706204 
Loop time of 20.4776 on 16 procs for 1000 steps with 1000 atoms

Performance: 4.219 ns/day, 5.688 hours/ns, 48.834 timesteps/s
94.4% CPU use with 16 MPI tasks x no OpenMP threads

MPI task timing breakdown:
Section |  min time  |  avg time  |  max time  |%varavg| %total
---------------------------------------------------------------
Pair    | 1.2652     | 1.4755     | 1.8144     |  12.8 |  7.21
Neigh   | 0.54072    | 0.60899    | 0.71194    |   6.0 |  2.97
Comm    | 0.68546    | 1.1271     | 1.4056     |  18.9 |  5.50
Output  | 11.593     | 11.948     | 17.226     |  39.4 | 58.35
Modify  | 0.031037   | 5.3095     | 5.6655     |  59.1 | 25.93
Other   |            | 0.00829    |            |       |  0.04

Nlocal:    62.5 ave 69 max 56 min
Histogram: 2 0 2 2 1 3 2 3 0 1
Nghost:    1865.62 ave 1880 max 1848 min
Histogram: 2 0 2 0 2 3 2 2 1 2
Neighs:    0 ave 0 max 0 min
Histogram: 16 0 0 0 0 0 0 0 0 0
FullNghs:  18871.5 ave 20993 max 16915 min
Histogram: 2 1 1 2 2 2 2 3 0 1

Total # of neighbors = 301944
Ave neighs/atom = 301.944
Neighbor list builds = 1000
Dangerous builds not checked
Setting up Verlet run ...
  Unit style    : real
  Current step  : 4000
  Time step     : 1
Per MPI rank memory allocation (min/avg/max) = 4.576 | 4.578 | 4.58 Mbytes
Step Temp E_pair E_mol TotEng Press Volume Lx Ly Lz S/CPU 
    4000    301.73479   -10538.415            0   -9639.9001    3027.4348    781.73393      9.21198      9.21198      9.21198            0 
    4100    295.15231   -10506.051            0   -9627.1373   -213.49741    779.72543    9.2040838    9.2040838    9.2040838    52.753679 
    4200       295.04   -10493.482            0   -9614.9034    6852.9918    777.76528    9.1963647    9.1963647    9.1963647    59.621195 
    4300    297.92762   -10490.901            0   -9603.7239    16025.286     776.0735    9.1896919    9.1896919    9.1896919    48.523811 
    4400    312.28258    -10525.65            0   -9595.7256    15570.777    774.99005    9.1854134    9.1854134    9.1854134    41.154612 
    4500    301.12217   -10485.777            0   -9589.0861    9065.5734    774.91222    9.1851059    9.1851059    9.1851059     47.63613 
    4600    292.22886   -10453.064            0   -9582.8564    24897.282    775.89951    9.1890051    9.1890051    9.1890051    44.894672 
    4700    293.28969   -10452.449            0   -9579.0823    19504.515    778.18376    9.1980137    9.1980137    9.1980137    60.659243 
    4800    307.37308   -10492.291            0   -9576.9867   -1643.4144    781.02063    9.2091773    9.2091773    9.2091773    48.099672 
    4900    312.25735   -10505.373            0   -9575.5243    5513.5092    783.92474    9.2205775    9.2205775    9.2205775    46.565664 
    5000    313.75602   -10509.753            0   -9575.4408    227.79666    786.89084    9.2321921    9.2321921    9.2321921    47.349487 
Loop time of 20.3773 on 16 procs for 1000 steps with 1000 atoms

Performance: 4.240 ns/day, 5.660 hours/ns, 49.074 timesteps/s
94.5% CPU use with 16 MPI tasks x no OpenMP threads

MPI task timing breakdown:
Section |  min time  |  avg time  |  max time  |%varavg| %total
---------------------------------------------------------------
Pair    | 1.5885     | 1.7102     | 1.9174     |   6.5 |  8.39
Neigh   | 0.65085    | 0.67731    | 0.7381     |   2.6 |  3.32
Comm    | 0.63707    | 0.90502    | 1.0494     |  10.9 |  4.44
Output  | 11.429     | 11.782     | 17.018     |  39.4 | 57.82
Modify  | 0.057281   | 5.2946     | 5.6477     |  58.8 | 25.98
Other   |            | 0.008706   |            |       |  0.04

Nlocal:    62.5 ave 68 max 53 min
Histogram: 1 0 1 0 2 0 5 2 4 1
Nghost:    1856.31 ave 1869 max 1840 min
Histogram: 2 0 2 1 1 2 1 4 1 2
Neighs:    0 ave 0 max 0 min
Histogram: 16 0 0 0 0 0 0 0 0 0
FullNghs:  18754.1 ave 20581 max 15921 min
Histogram: 1 0 1 1 1 3 2 4 2 1

Total # of neighbors = 300066
Ave neighs/atom = 300.066
Neighbor list builds = 1000
Dangerous builds not checked
Setting up Verlet run ...
  Unit style    : real
  Current step  : 5000
  Time step     : 1
Per MPI rank memory allocation (min/avg/max) = 4.576 | 4.578 | 4.58 Mbytes
Step Temp E_pair E_mol TotEng Press Volume Lx Ly Lz S/CPU 
    5000    313.75602   -10509.753            0   -9575.4408    227.79666    786.89084    9.2321921    9.2321921    9.2321921            0 
    5100    306.77427   -10489.205            0   -9575.6832    6452.1284    789.46489    9.2422478    9.2422478    9.2422478    40.860616 
    5200    302.10006   -10477.107            0    -9577.505   -3837.0219    791.80864    9.2513848    9.2513848    9.2513848    44.641923 
    5300    305.63708    -10490.47            0   -9580.3346   -10902.866    793.39164    9.2575459    9.2575459    9.2575459    54.793543 
    5400    310.63475   -10508.827            0   -9583.8093   -13000.394    794.32817     9.261187     9.261187     9.261187    49.239005 
    5500    294.67827   -10463.416            0   -9585.9145   -9038.6717    794.37083    9.2613528    9.2613528    9.2613528    41.652079 
    5600    297.62375   -10476.282            0   -9590.0096   -26792.547    793.37273    9.2574723    9.2574723    9.2574723    45.353555 
    5700     299.8294   -10486.909            0   -9594.0682   -7810.7812     791.1288    9.2487363    9.2487363    9.2487363    47.038061 
    5800    300.35108   -10492.289            0   -9597.8944   -1392.1165    787.81317    9.2357977    9.2357977    9.2357977    42.480974 
    5900    293.39769   -10474.268            0   -9600.5795   -2385.0426    784.07325    9.2211598    9.2211598    9.2211598    41.744472 
    6000    307.90459    -10521.91            0   -9605.0228    6012.0506    780.74587    9.2080973    9.2080973    9.2080973    42.075901 
Loop time of 22.4012 on 16 procs for 1000 steps with 1000 atoms

Performance: 3.857 ns/day, 6.223 hours/ns, 44.640 timesteps/s
94.4% CPU use with 16 MPI tasks x no OpenMP threads

MPI task timing breakdown:
Section |  min time  |  avg time  |  max time  |%varavg| %total
---------------------------------------------------------------
Pair    | 1.5997     | 1.7581     | 1.9365     |   7.2 |  7.85
Neigh   | 0.66415    | 0.70253    | 0.72979    |   2.2 |  3.14
Comm    | 0.63938    | 0.84431    | 1.0223     |  12.1 |  3.77
Output  | 12.665     | 13.065     | 19.019     |  42.5 | 58.32
Modify  | 0.070571   | 6.0223     | 6.423      |  62.6 | 26.88
Other   |            | 0.008752   |            |       |  0.04

Nlocal:    62.5 ave 66 max 57 min
Histogram: 1 0 1 1 3 2 2 2 1 3
Nghost:    1883.5 ave 1905 max 1863 min
Histogram: 2 0 4 2 0 1 3 1 1 2
Neighs:    0 ave 0 max 0 min
Histogram: 16 0 0 0 0 0 0 0 0 0
FullNghs:  18893.5 ave 20165 max 16997 min
Histogram: 1 0 1 1 2 3 3 1 2 2

Total # of neighbors = 302296
Ave neighs/atom = 302.296
Neighbor list builds = 1000
Dangerous builds not checked
Setting up Verlet run ...
  Unit style    : real
  Current step  : 6000
  Time step     : 1
Per MPI rank memory allocation (min/avg/max) = 4.576 | 4.578 | 4.58 Mbytes
Step Temp E_pair E_mol TotEng Press Volume Lx Ly Lz S/CPU 
    6000    307.90459    -10521.91            0   -9605.0228    6012.0506    780.74587    9.2080973    9.2080973    9.2080973            0 
    6100    300.26317   -10500.717            0   -9606.5851    10081.672    778.06229    9.1975352    9.1975352    9.1975352    59.115836 
    6200    306.58062   -10523.485            0   -9610.5399   -4194.1239    776.22402     9.190286     9.190286     9.190286     54.43116 
    6300    295.20348    -10495.71            0   -9616.6441    6220.4479    774.90348    9.1850714    9.1850714    9.1850714    49.315109 
    6400    308.08321   -10541.127            0   -9623.7082    29301.945    774.17625    9.1821972    9.1821972    9.1821972    47.260732 
    6500      290.721   -10496.343            0    -9630.626    18836.226     774.7215    9.1843523    9.1843523    9.1843523    59.681445 
    6600    298.08955   -10526.174            0   -9638.5139    13157.663    776.40846    9.1910138    9.1910138    9.1910138    58.088563 
    6700    286.89515   -10499.966            0   -9645.6416    6382.4738    778.40663    9.1988918    9.1988918    9.1988918    50.050842 
    6800    291.79544   -10522.769            0    -9653.852   -5383.3094     780.7481     9.208106     9.208106     9.208106    58.030309 
    6900    288.24811   -10517.789            0   -9659.4357    575.24117    783.19545    9.2177173    9.2177173    9.2177173     61.68939 
    7000    289.78609   -10527.622            0   -9664.6882    -8159.875    785.33333    9.2260969    9.2260969    9.2260969    46.169664 
Loop time of 18.5778 on 16 procs for 1000 steps with 1000 atoms

Performance: 4.651 ns/day, 5.161 hours/ns, 53.828 timesteps/s
94.6% CPU use with 16 MPI tasks x no OpenMP threads

MPI task timing breakdown:
Section |  min time  |  avg time  |  max time  |%varavg| %total
---------------------------------------------------------------
Pair    | 1.6395     | 1.7545     | 1.8988     |   5.5 |  9.44
Neigh   | 0.64986    | 0.69049    | 0.72807    |   2.5 |  3.72
Comm    | 0.73296    | 0.9006     | 1.0456     |   9.5 |  4.85
Output  | 10.308     | 10.617     | 15.188     |  36.2 | 57.15
Modify  | 0.035487   | 4.6064     | 4.9158     |  55.0 | 24.80
Other   |            | 0.008829   |            |       |  0.05

Nlocal:    62.5 ave 68 max 56 min
Histogram: 1 0 1 0 5 4 1 1 1 2
Nghost:    1854.19 ave 1869 max 1833 min
Histogram: 2 0 1 2 1 0 2 3 2 3
Neighs:    0 ave 0 max 0 min
Histogram: 16 0 0 0 0 0 0 0 0 0
FullNghs:  18779.9 ave 20440 max 16758 min
Histogram: 1 0 1 0 5 2 3 1 2 1

Total # of neighbors = 300478
Ave neighs/atom = 300.478
Neighbor list builds = 1000
Dangerous builds not checked
Setting up Verlet run ...
  Unit style    : real
  Current step  : 7000
  Time step     : 1
Per MPI rank memory allocation (min/avg/max) = 4.576 | 4.578 | 4.58 Mbytes
Step Temp E_pair E_mol TotEng Press Volume Lx Ly Lz S/CPU 
    7000    289.78609   -10527.622            0   -9664.6882    -8159.875    785.33333    9.2260969    9.2260969    9.2260969            0 
    7100    291.74613   -10535.515            0   -9666.7451   -12773.557    786.62863    9.2311665    9.2311665    9.2311665    48.440881 
    7200    301.88528   -10568.775            0   -9669.8127     -7037.42    786.89074    9.2321916    9.2321916    9.2321916    33.066397 
    7300    293.37366   -10543.173            0   -9669.5559    -9789.692    786.16063    9.2293354    9.2293354    9.2293354    48.689707 
    7400    288.79029   -10526.312            0   -9666.3435   -14830.651    784.94548    9.2245778    9.2245778    9.2245778    52.155882 
    7500    294.50839   -10537.215            0   -9660.2191    5598.5222    783.36208     9.218371     9.218371     9.218371    47.468889 
    7600    302.18932   -10548.119            0   -9648.2511    7491.6559    781.91116    9.2126761    9.2126761    9.2126761    63.477798 
    7700    299.43534   -10523.546            0   -9631.8786    14762.281    780.79389     9.208286     9.208286     9.208286    54.894604 
    7800    313.15619   -10549.134            0   -9616.6081    11996.838    780.44255    9.2069047    9.2069047    9.2069047    45.710828 
    7900    304.16594    -10510.27            0   -9604.5157   -356.14267    780.92653    9.2088075    9.2088075    9.2088075    40.475732 
    8000    314.28422   -10532.751            0    -9596.866   -498.46237    781.46066    9.2109065    9.2109065    9.2109065    46.126075 
Loop time of 21.3897 on 16 procs for 1000 steps with 1000 atoms

Performance: 4.039 ns/day, 5.942 hours/ns, 46.751 timesteps/s
94.4% CPU use with 16 MPI tasks x no OpenMP threads

MPI task timing breakdown:
Section |  min time  |  avg time  |  max time  |%varavg| %total
---------------------------------------------------------------
Pair    | 1.5873     | 1.7144     | 1.7971     |   4.4 |  8.02
Neigh   | 0.65635    | 0.6877     | 0.72011    |   1.9 |  3.22
Comm    | 0.8065     | 0.91074    | 1.069      |   7.3 |  4.26
Output  | 12.155     | 12.526     | 18.03      |  40.1 | 58.56
Modify  | 0.038133   | 5.5406     | 5.9111     |  60.4 | 25.90
Other   |            | 0.009921   |            |       |  0.05

Nlocal:    62.5 ave 66 max 59 min
Histogram: 3 1 2 0 2 2 0 0 5 1
Nghost:    1857.94 ave 1882 max 1835 min
Histogram: 1 0 3 2 2 4 0 2 1 1
Neighs:    0 ave 0 max 0 min
Histogram: 16 0 0 0 0 0 0 0 0 0
FullNghs:  18877.6 ave 19901 max 17661 min
Histogram: 2 1 1 2 2 1 1 0 1 5

Total # of neighbors = 302042
Ave neighs/atom = 302.042
Neighbor list builds = 1000
Dangerous builds not checked
Setting up Verlet run ...
  Unit style    : real
  Current step  : 8000
  Time step     : 1
Per MPI rank memory allocation (min/avg/max) = 4.576 | 4.578 | 4.58 Mbytes
Step Temp E_pair E_mol TotEng Press Volume Lx Ly Lz S/CPU 
    8000    314.28422   -10532.751            0    -9596.866   -498.46237    781.46066    9.2109065    9.2109065    9.2109065            0 
    8100    293.88699    -10465.13            0   -9589.9844   -2544.9385    782.34835    9.2143928    9.2143928    9.2143928    43.608108 
    8200     291.1649   -10453.179            0   -9586.1396    1226.5634    783.20998    9.2177743    9.2177743    9.2177743    55.958772 
    8300    302.70121    -10485.93            0   -9584.5375   -26102.677    783.93607     9.220622     9.220622     9.220622    41.063634 
    8400     291.2204   -10447.879            0   -9580.6747    3768.5072    783.88315    9.2204144    9.2204144    9.2204144    50.806558 
    8500    303.04302   -10481.301            0   -9578.8911   -10078.202    783.46282    9.2187661    9.2187661    9.2187661    46.256439 
    8600    319.54818    -10530.32            0   -9578.7602   -5746.1292    782.79627     9.216151     9.216151     9.216151    39.824435 
    8700     305.1926   -10484.767            0   -9575.9553   -2463.7915    782.18686    9.2137588    9.2137588    9.2137588    57.028165 
    8800    301.68393   -10473.862            0   -9575.4993    7102.3144    781.66949    9.2117269    9.2117269    9.2117269    53.352588 
    8900     308.7648   -10498.128            0   -9578.6794    6445.1728    781.65356    9.2116643    9.2116643    9.2116643    45.248962 
    9000    312.75748   -10512.092            0   -9580.7539    3823.1989    781.91969    9.2127096    9.2127096    9.2127096    56.882649 
Loop time of 20.7524 on 16 procs for 1000 steps with 1000 atoms

Performance: 4.163 ns/day, 5.765 hours/ns, 48.187 timesteps/s
94.5% CPU use with 16 MPI tasks x no OpenMP threads

MPI task timing breakdown:
Section |  min time  |  avg time  |  max time  |%varavg| %total
---------------------------------------------------------------
Pair    | 1.6176     | 1.7349     | 1.895      |   4.9 |  8.36
Neigh   | 0.65104    | 0.69161    | 0.7498     |   2.7 |  3.33
Comm    | 0.68403    | 0.90198    | 1.0599     |   8.8 |  4.35
Output  | 11.749     | 12.104     | 17.37      |  39.1 | 58.33
Modify  | 0.044215   | 5.3112     | 5.6661     |  59.0 | 25.59
Other   |            | 0.008747   |            |       |  0.04

Nlocal:    62.5 ave 69 max 60 min
Histogram: 6 1 1 4 1 1 0 1 0 1
Nghost:    1857.19 ave 1883 max 1839 min
Histogram: 3 1 3 1 2 0 2 2 1 1
Neighs:    0 ave 0 max 0 min
Histogram: 16 0 0 0 0 0 0 0 0 0
FullNghs:  18863 ave 21095 max 17941 min
Histogram: 6 1 1 4 1 1 0 1 0 1

Total # of neighbors = 301808
Ave neighs/atom = 301.808
Neighbor list builds = 1000
Dangerous builds not checked
Setting up Verlet run ...
  Unit style    : real
  Current step  : 9000
  Time step     : 1
Per MPI rank memory allocation (min/avg/max) = 4.576 | 4.578 | 4.58 Mbytes
Step Temp E_pair E_mol TotEng Press Volume Lx Ly Lz S/CPU 
    9000    312.75748   -10512.092            0   -9580.7539    3823.1989    781.91969    9.2127096    9.2127096    9.2127096            0 
    9100    297.98568   -10472.029            0   -9584.6788    1615.0605    782.37735    9.2145067    9.2145067    9.2145067    50.779015 
    9200    291.43238   -10459.138            0   -9591.3024   -3525.3375    782.92028    9.2166377    9.2166377    9.2166377    38.403342 
    9300    300.08224   -10494.292            0   -9600.6986    74.197182    783.43219     9.218646     9.218646     9.218646    52.174417 
    9400    294.48427   -10487.036            0   -9610.1119    2914.5896    783.36828    9.2183953    9.2183953    9.2183953    59.230236 
    9500    292.15349   -10492.413            0   -9622.4299    -13355.85     783.4427    9.2186872    9.2186872    9.2186872    42.643477 
    9600    287.26509   -10488.647            0   -9633.2207    5633.3067    783.65568    9.2195225    9.2195225    9.2195225     53.06981 
    9700    298.63137   -10532.998            0   -9643.7243   -8440.5814    784.38673    9.2223885    9.2223885    9.2223885    49.646595 
    9800    293.00395   -10523.352            0   -9650.8365    1552.4136    785.04005    9.2249482    9.2249482    9.2249482    48.268867 
    9900    294.80468   -10534.947            0   -9657.0692   -707.66254    785.38814    9.2263115    9.2263115    9.2263115    44.669499 
   10000    301.85502   -10561.602            0   -9662.7291   -1225.5168    785.87291    9.2282094    9.2282094    9.2282094    52.560307 
Loop time of 20.6348 on 16 procs for 1000 steps with 1000 atoms

Performance: 4.187 ns/day, 5.732 hours/ns, 48.462 timesteps/s
94.4% CPU use with 16 MPI tasks x no OpenMP threads

MPI task timing breakdown:
Section |  min time  |  avg time  |  max time  |%varavg| %total
---------------------------------------------------------------
Pair    | 1.4865     | 1.6058     | 1.7411     |   4.6 |  7.78
Neigh   | 0.61621    | 0.6539     | 0.71192    |   2.7 |  3.17
Comm    | 0.83394    | 1.027      | 1.1804     |   7.6 |  4.98
Output  | 11.52      | 11.885     | 17.3       |  40.6 | 57.60
Modify  | 0.038713   | 5.4549     | 5.8197     |  59.9 | 26.44
Other   |            | 0.008447   |            |       |  0.04

Nlocal:    62.5 ave 66 max 59 min
Histogram: 3 1 1 0 3 2 0 3 0 3
Nghost:    1839.56 ave 1853 max 1828 min
Histogram: 2 1 2 1 2 2 4 0 0 2
Neighs:    0 ave 0 max 0 min
Histogram: 16 0 0 0 0 0 0 0 0 0
FullNghs:  18771 ave 20077 max 17582 min
Histogram: 3 1 1 1 3 1 2 1 1 2

Total # of neighbors = 300336
Ave neighs/atom = 300.336
Neighbor list builds = 1000
Dangerous builds not checked
Setting up Verlet run ...
  Unit style    : real
  Current step  : 10000
  Time step     : 1
Per MPI rank memory allocation (min/avg/max) = 4.576 | 4.578 | 4.58 Mbytes
Step Temp E_pair E_mol TotEng Press Volume Lx Ly Lz S/CPU 
   10000    301.85502   -10561.602            0   -9662.7291   -1225.5168    785.87291    9.2282094    9.2282094    9.2282094            0 
   10100    291.20388   -10532.449            0   -9665.2938   -4436.6614    786.48695    9.2306122    9.2306122    9.2306122     35.88858 
   10200    299.37667   -10557.948            0   -9666.4554    1661.0853    786.67175    9.2313351    9.2313351    9.2313351    57.040737 
   10300    287.18276   -10521.127            0   -9665.9455    9852.4765     786.7954    9.2318188    9.2318188    9.2318188    36.095215 
   10400    300.88484   -10560.641            0    -9664.657    4038.4005    787.00407    9.2326348    9.2326348    9.2326348    49.095157 
   10500    285.33078   -10507.429            0   -9657.7628   -8470.7838    787.11751    9.2330784    9.2330784    9.2330784    64.404198 
   10600      289.963   -10509.791            0    -9646.331    3222.2829    786.70391    9.2314609    9.2314609    9.2314609    48.317124 
   10700    293.34035    -10500.92            0   -9627.4023   -3207.3937    786.11591    9.2291604    9.2291604    9.2291604    52.255008 
   10800    294.91304   -10482.834            0   -9604.6332    -11146.18    784.93864     9.224551     9.224551     9.224551    57.778914 
   10900    299.02391   -10477.297            0   -9586.8545    1648.8068    783.42865    9.2186321    9.2186321    9.2186321    47.185002 
   11000    303.10607   -10479.288            0     -9576.69    6111.9491     782.3047    9.2142215    9.2142215    9.2142215    59.032833 
Loop time of 20.4269 on 16 procs for 1000 steps with 1000 atoms

Performance: 4.230 ns/day, 5.674 hours/ns, 48.955 timesteps/s
94.5% CPU use with 16 MPI tasks x no OpenMP threads

MPI task timing breakdown:
Section |  min time  |  avg time  |  max time  |%varavg| %total
---------------------------------------------------------------
Pair    | 1.4738     | 1.5941     | 1.7696     |   5.8 |  7.80
Neigh   | 0.62015    | 0.65209    | 0.7106     |   2.6 |  3.19
Comm    | 0.80504    | 1.0391     | 1.1652     |   9.1 |  5.09
Output  | 10.836     | 11.23      | 17.092     |  45.2 | 54.98
Modify  | 0.040686   | 5.9029     | 6.2977     |  62.3 | 28.90
Other   |            | 0.008385   |            |       |  0.04

Nlocal:    62.5 ave 68 max 60 min
Histogram: 2 4 4 2 0 1 2 0 0 1
Nghost:    1864.69 ave 1891 max 1841 min
Histogram: 2 1 2 2 0 3 2 2 1 1
Neighs:    0 ave 0 max 0 min
Histogram: 16 0 0 0 0 0 0 0 0 0
FullNghs:  18864.1 ave 20464 max 18024 min
Histogram: 3 3 3 2 2 0 0 2 0 1

Total # of neighbors = 301826
Ave neighs/atom = 301.826
Neighbor list builds = 1000
Dangerous builds not checked
Setting up Verlet run ...
  Unit style    : real
  Current step  : 11000
  Time step     : 1
Per MPI rank memory allocation (min/avg/max) = 4.576 | 4.578 | 4.58 Mbytes
Step Temp E_pair E_mol TotEng Press Volume Lx Ly Lz S/CPU 
   11000    303.10607   -10479.288            0     -9576.69    6111.9491     782.3047    9.2142215    9.2142215    9.2142215            0 
   11100    307.59547   -10487.077            0   -9571.1098    5258.7486     781.9018    9.2126394    9.2126394    9.2126394    49.012329 
   11200    306.27117   -10480.541            0   -9568.5182    6962.0977    781.91719    9.2126998    9.2126998    9.2126998    46.883731 
   11300    301.73688   -10465.857            0   -9567.3363    15559.102    782.41722    9.2146632    9.2146632    9.2146632    47.037444 
   11400    306.36544     -10480.1            0   -9567.7961    6405.8659    783.22407    9.2178296    9.2178296    9.2178296    56.867469 
   11500    302.17599   -10468.335            0   -9568.5061     1028.913    784.31192    9.2220953    9.2220953    9.2220953    46.343729 
   11600    299.96212   -10462.352            0   -9569.1164   -73.961992    785.53555    9.2268887    9.2268887    9.2268887    47.871625 
   11700    305.47598   -10480.713            0   -9571.0574   -273.41632    786.93394    9.2323606    9.2323606    9.2323606    51.092693 
   11800     310.4362   -10499.071            0    -9574.645   -13485.122    787.87776    9.2360501    9.2360501    9.2360501    53.398739 
   11900     296.0487   -10460.676            0   -9579.0931   -9341.7373    788.03983    9.2366834    9.2366834    9.2366834    51.355549 
   12000    299.42952   -10475.596            0   -9583.9463   -2529.5693    787.48239    9.2345049    9.2345049    9.2345049    49.310304 
Loop time of 20.1095 on 16 procs for 1000 steps with 1000 atoms

Performance: 4.296 ns/day, 5.586 hours/ns, 49.728 timesteps/s
94.4% CPU use with 16 MPI tasks x no OpenMP threads

MPI task timing breakdown:
Section |  min time  |  avg time  |  max time  |%varavg| %total
---------------------------------------------------------------
Pair    | 1.4455     | 1.5815     | 1.729      |   5.1 |  7.86
Neigh   | 0.6186     | 0.64489    | 0.70674    |   2.7 |  3.21
Comm    | 0.81065    | 1.0205     | 1.1744     |   8.2 |  5.07
Output  | 11.42      | 11.761     | 16.82      |  38.1 | 58.48
Modify  | 0.033455   | 5.0934     | 5.4344     |  57.9 | 25.33
Other   |            | 0.008426   |            |       |  0.04

Nlocal:    62.5 ave 68 max 57 min
Histogram: 1 1 2 2 1 4 1 2 1 1
Nghost:    1859.06 ave 1871 max 1845 min
Histogram: 1 1 3 1 1 2 2 1 2 2
Neighs:    0 ave 0 max 0 min
Histogram: 16 0 0 0 0 0 0 0 0 0
FullNghs:  18764.1 ave 20674 max 17036 min
Histogram: 1 0 3 2 2 4 1 2 0 1

Total # of neighbors = 300226
Ave neighs/atom = 300.226
Neighbor list builds = 1000
Dangerous builds not checked
Setting up Verlet run ...
  Unit style    : real
  Current step  : 12000
  Time step     : 1
Per MPI rank memory allocation (min/avg/max) = 4.576 | 4.578 | 4.58 Mbytes
Step Temp E_pair E_mol TotEng Press Volume Lx Ly Lz S/CPU 
   12000    299.42952   -10475.596            0   -9583.9463   -2529.5693    787.48239    9.2345049    9.2345049    9.2345049            0 
   12100    299.59164   -10482.851            0   -9590.7183   -8396.9588    786.74037    9.2316036    9.2316036    9.2316036    51.219265 
   12200    300.91676   -10492.882            0    -9596.803    10682.534     785.8836    9.2282512    9.2282512    9.2282512    42.104179 
   12300    296.02244   -10484.952            0   -9603.4476   -6460.9818    785.43418    9.2264918    9.2264918    9.2264918    52.030192 
   12400    302.96346   -10513.833            0     -9611.66    8517.8894     785.1328    9.2253115    9.2253115    9.2253115    46.202764 
   12500    296.51044   -10502.783            0   -9619.8252   -1190.4148    785.04592    9.2249712    9.2249712    9.2249712    51.388087 
   12600    303.74296   -10533.778            0   -9629.2834   -12820.186    784.69925    9.2236131    9.2236131    9.2236131    46.720084 
   12700     288.9016   -10496.235            0   -9635.9349    6389.7898    783.79343    9.2200627    9.2200627    9.2200627    41.859969 
   12800    304.20835   -10550.067            0   -9644.1863   -1246.2196    782.75973    9.2160076    9.2160076    9.2160076    53.177422 
   12900    290.57762   -10513.267            0   -9647.9765   -6472.3925    781.46031    9.2109051    9.2109051    9.2109051    48.802465 
   13000    296.37225   -10533.325            0   -9650.7788    8780.7407    780.38501    9.2066784    9.2066784    9.2066784    49.298058 
Loop time of 20.8472 on 16 procs for 1000 steps with 1000 atoms

Performance: 4.144 ns/day, 5.791 hours/ns, 47.968 timesteps/s
94.5% CPU use with 16 MPI tasks x no OpenMP threads

MPI task timing breakdown:
Section |  min time  |  avg time  |  max time  |%varavg| %total
---------------------------------------------------------------
Pair    | 1.4778     | 1.5818     | 1.7916     |   6.0 |  7.59
Neigh   | 0.60758    | 0.64506    | 0.70397    |   3.0 |  3.09
Comm    | 0.76653    | 1.0347     | 1.1757     |   9.4 |  4.96
Output  | 11.716     | 12.084     | 17.542     |  40.5 | 57.97
Modify  | 0.034033   | 5.493      | 5.8608     |  60.1 | 26.35
Other   |            | 0.008383   |            |       |  0.04

Nlocal:    62.5 ave 67 max 58 min
Histogram: 1 2 2 2 0 3 0 4 1 1
Nghost:    1855.38 ave 1880 max 1842 min
Histogram: 2 3 4 1 2 1 1 0 0 2
Neighs:    0 ave 0 max 0 min
Histogram: 16 0 0 0 0 0 0 0 0 0
FullNghs:  18916.6 ave 20281 max 17421 min
Histogram: 2 0 3 1 1 3 0 2 2 2

Total # of neighbors = 302666
Ave neighs/atom = 302.666
Neighbor list builds = 1000
Dangerous builds not checked
Setting up Verlet run ...
  Unit style    : real
  Current step  : 13000
  Time step     : 1
Per MPI rank memory allocation (min/avg/max) = 4.576 | 4.578 | 4.58 Mbytes
Step Temp E_pair E_mol TotEng Press Volume Lx Ly Lz S/CPU 
   13000    296.37225   -10533.325            0   -9650.7788    8780.7407    780.38501    9.2066784    9.2066784    9.2066784            0 
   13100    289.95801   -10513.939            0   -9650.4931   -11459.557    779.44902    9.2029961    9.2029961    9.2029961    60.081293 
   13200    296.89572   -10535.127            0   -9651.0225    12225.986     778.6517     9.199857     9.199857     9.199857    55.824778 
   13300    301.32411   -10547.592            0   -9650.3001    13881.888    778.59047    9.1996159    9.1996159    9.1996159    48.021873 
   13400    294.17215   -10524.468            0   -9648.4737    302.83547    779.03163    9.2013531    9.2013531    9.2013531     57.42302 
   13500    303.43243   -10549.018            0   -9645.4485   -445.86695    779.59819    9.2035832    9.2035832    9.2035832    36.833125 
   13600    291.60535   -10511.034            0   -9642.6829    4415.4767    780.31674    9.2064099    9.2064099    9.2064099    54.996895 
   13700    285.38318   -10488.242            0   -9638.4196     8032.535    781.25192    9.2100863    9.2100863    9.2100863    58.853899 
   13800    294.93594    -10508.82            0   -9630.5511    -2511.439    782.59937    9.2153782    9.2153782    9.2153782    45.840878 
   13900    290.19026    -10480.53            0   -9616.3928    4009.1403    784.23308    9.2217863    9.2217863    9.2217863    53.076187 
   14000     294.8202   -10477.588            0   -9599.6641   -15518.585    786.08742    9.2290489    9.2290489    9.2290489    61.407063 
Loop time of 19.206 on 16 procs for 1000 steps with 1000 atoms

Performance: 4.499 ns/day, 5.335 hours/ns, 52.067 timesteps/s
94.5% CPU use with 16 MPI tasks x no OpenMP threads

MPI task timing breakdown:
Section |  min time  |  avg time  |  max time  |%varavg| %total
---------------------------------------------------------------
Pair    | 1.5085     | 1.6129     | 1.753      |   5.7 |  8.40
Neigh   | 0.62402    | 0.65404    | 0.69156    |   2.8 |  3.41
Comm    | 0.85196    | 1.0296     | 1.1582     |   9.2 |  5.36
Output  | 10.096     | 10.46      | 15.861     |  43.1 | 54.46
Modify  | 0.039857   | 5.4406     | 5.8047     |  59.8 | 28.33
Other   |            | 0.008428   |            |       |  0.04

Nlocal:    62.5 ave 66 max 57 min
Histogram: 1 1 0 2 1 2 3 2 1 3
Nghost:    1838.44 ave 1861 max 1814 min
Histogram: 3 1 1 1 2 1 2 1 0 4
Neighs:    0 ave 0 max 0 min
Histogram: 16 0 0 0 0 0 0 0 0 0
FullNghs:  18747 ave 19864 max 16984 min
Histogram: 1 1 0 2 1 2 3 2 1 3

Total # of neighbors = 299952
Ave neighs/atom = 299.952
Neighbor list builds = 1000
Dangerous builds not checked
Setting up Verlet run ...
  Unit style    : real
  Current step  : 14000
  Time step     : 1
Per MPI rank memory allocation (min/avg/max) = 4.576 | 4.578 | 4.58 Mbytes
Step Temp E_pair E_mol TotEng Press Volume Lx Ly Lz S/CPU 
   14000     294.8202   -10477.588            0   -9599.6641   -15518.585    786.08742    9.2290489    9.2290489    9.2290489            0 
   14100    310.73083   -10509.941            0   -9584.6376   -19362.896    787.58166    9.2348929    9.2348929    9.2348929    44.974736 
   14200    300.41487    -10466.53            0   -9571.9459   -4721.7561    788.44473     9.238265     9.238265     9.238265    44.254666 
   14300    296.70478   -10446.112            0   -9562.5759   -11878.612    788.97124     9.240321     9.240321     9.240321    53.357707 
   14400    305.42392   -10468.337            0   -9558.8365    1638.4127    788.96918    9.2403129    9.2403129    9.2403129    52.211863 
   14500    310.58357   -10479.744            0    -9554.879   -3146.9052    788.99144    9.2403998    9.2403998    9.2403998    43.971715 
   14600       313.01   -10485.509            0   -9553.4183   -853.77785    789.28749    9.2415555    9.2415555    9.2415555     61.02271 
   14700    307.50713    -10469.76            0   -9554.0565    9981.2546    789.67459     9.243066     9.243066     9.243066    53.095004 
   14800    303.05936   -10459.092            0    -9556.633   -2773.5641    790.12887    9.2448381    9.2448381    9.2448381     44.71418 
   14900    301.75108   -10459.526            0   -9560.9626    2799.8117    790.41591    9.2459575    9.2459575    9.2459575    35.556799 
   15000    301.62362    -10462.57            0   -9564.3859   -9078.8657    790.13897    9.2448775    9.2448775    9.2448775    58.494167 
Loop time of 20.8274 on 16 procs for 1000 steps with 1000 atoms

Performance: 4.148 ns/day, 5.785 hours/ns, 48.014 timesteps/s
94.4% CPU use with 16 MPI tasks x no OpenMP threads

MPI task timing breakdown:
Section |  min time  |  avg time  |  max time  |%varavg| %total
---------------------------------------------------------------
Pair    | 1.443      | 1.5656     | 1.7433     |   5.9 |  7.52
Neigh   | 0.62384    | 0.64479    | 0.69738    |   2.4 |  3.10
Comm    | 0.76028    | 0.99015    | 1.1233     |   8.9 |  4.75
Output  | 11.082     | 11.492     | 17.59      |  46.4 | 55.18
Modify  | 0.027973   | 6.1264     | 6.537      |  63.6 | 29.42
Other   |            | 0.008421   |            |       |  0.04

Nlocal:    62.5 ave 70 max 59 min
Histogram: 5 1 1 4 3 1 0 0 0 1
Nghost:    1843.56 ave 1862 max 1829 min
Histogram: 2 3 3 0 1 1 2 1 2 1
Neighs:    0 ave 0 max 0 min
Histogram: 16 0 0 0 0 0 0 0 0 0
FullNghs:  18668.1 ave 20750 max 17594 min
Histogram: 5 0 1 2 6 0 1 0 0 1

Total # of neighbors = 298690
Ave neighs/atom = 298.69
Neighbor list builds = 1000
Dangerous builds not checked
Setting up Verlet run ...
  Unit style    : real
  Current step  : 15000
  Time step     : 1
Per MPI rank memory allocation (min/avg/max) = 4.576 | 4.578 | 4.58 Mbytes
Step Temp E_pair E_mol TotEng Press Volume Lx Ly Lz S/CPU 
   15000    301.62362    -10462.57            0   -9564.3859   -9078.8657    790.13897    9.2448775    9.2448775    9.2448775            0 
   15100    301.58121   -10467.506            0   -9569.4485   -1745.1943    789.30083    9.2416075    9.2416075    9.2416075    57.361632 
   15200    292.37771   -10446.096            0   -9575.4452    6995.9211    788.58256    9.2388034    9.2388034    9.2388034    37.036446 
   15300    306.77882   -10496.871            0   -9583.3358   -6356.0207    788.26164    9.2375499    9.2375499    9.2375499    53.188568 
   15400    300.20436    -10485.75            0   -9591.7927     494.8679    788.06398    9.2367777    9.2367777    9.2367777    40.241884 
   15500    290.36619   -10465.313            0   -9600.6516    2408.6992    787.84056    9.2359048    9.2359048    9.2359048    51.337244 
   15600    287.54459   -10465.427            0   -9609.1678   -9007.4545    787.36802    9.2340578    9.2340578    9.2340578     44.60925 
   15700    290.66127   -10483.347            0   -9617.8078   -3327.9137    786.40658    9.2302978    9.2302978    9.2302978    42.772817 
   15800    286.53265   -10477.828            0   -9624.5824   -975.22677    785.20926     9.225611     9.225611     9.225611     61.73212 
   15900    297.42904   -10517.817            0   -9632.1239    1392.9242    784.10695    9.2212919    9.2212919    9.2212919    52.491645 
   16000    291.80652   -10506.484            0   -9637.5336    16174.451    783.41033    9.2185603    9.2185603    9.2185603    39.897501 
Loop time of 21.3674 on 16 procs for 1000 steps with 1000 atoms

Performance: 4.044 ns/day, 5.935 hours/ns, 46.800 timesteps/s
94.4% CPU use with 16 MPI tasks x no OpenMP threads

MPI task timing breakdown:
Section |  min time  |  avg time  |  max time  |%varavg| %total
---------------------------------------------------------------
Pair    | 1.4526     | 1.5619     | 1.7038     |   5.3 |  7.31
Neigh   | 0.60155    | 0.64124    | 0.68726    |   2.8 |  3.00
Comm    | 0.84271    | 1.0309     | 1.1803     |   8.4 |  4.82
Output  | 12.574     | 12.922     | 18.084     |  37.1 | 60.47
Modify  | 0.040761   | 5.2033     | 5.5511     |  58.4 | 24.35
Other   |            | 0.008382   |            |       |  0.04

Nlocal:    62.5 ave 76 max 53 min
Histogram: 1 1 1 7 1 3 1 0 0 1
Nghost:    1858.44 ave 1874 max 1837 min
Histogram: 1 0 2 0 3 3 2 1 0 4
Neighs:    0 ave 0 max 0 min
Histogram: 16 0 0 0 0 0 0 0 0 0
FullNghs:  18848.9 ave 23213 max 15935 min
Histogram: 1 1 1 7 2 3 0 0 0 1

Total # of neighbors = 301582
Ave neighs/atom = 301.582
Neighbor list builds = 1000
Dangerous builds not checked
Setting up Verlet run ...
  Unit style    : real
  Current step  : 16000
  Time step     : 1
Per MPI rank memory allocation (min/avg/max) = 4.576 | 4.578 | 4.58 Mbytes
Step Temp E_pair E_mol TotEng Press Volume Lx Ly Lz S/CPU 
   16000    291.80652   -10506.484            0   -9637.5336    16174.451    783.41033    9.2185603    9.2185603    9.2185603            0 
   16100    297.54166   -10527.467            0   -9641.4384   -1990.4769    783.09857    9.2173372    9.2173372    9.2173372    46.902965 
   16200    290.82523   -10510.573            0   -9644.5452    14281.406    782.68527    9.2157154    9.2157154    9.2157154     53.18335 
   16300    295.89857    -10527.89            0   -9646.7544    -5125.279    782.32869    9.2143156    9.2143156    9.2143156    46.317092 
   16400     299.5833   -10538.877            0   -9646.7692    6977.5293    782.02565    9.2131258    9.2131258    9.2131258    53.059338 
   16500    295.59889   -10524.832            0   -9644.5886   -1553.8787    781.98084    9.2129498    9.2129498    9.2129498    49.419549 
   16600    294.38144   -10519.005            0   -9642.3874   -2824.1983    781.81848    9.2123121    9.2123121    9.2123121    40.933568 
   16700    296.49921   -10519.736            0   -9636.8118    11670.353     781.6881       9.2118       9.2118       9.2118    44.684939 
   16800    292.60175   -10497.531            0   -9626.2133    4643.4216    782.30723    9.2142314    9.2142314    9.2142314    35.702261 
   16900    302.49848   -10509.657            0   -9608.8686   -1176.2836    783.40533    9.2185406    9.2185406    9.2185406    42.403842 
   17000     309.2991   -10509.253            0    -9588.213    1391.9676     784.6898    9.2235761    9.2235761    9.2235761    43.779518 
Loop time of 22.2039 on 16 procs for 1000 steps with 1000 atoms

Performance: 3.891 ns/day, 6.168 hours/ns, 45.037 timesteps/s
94.4% CPU use with 16 MPI tasks x no OpenMP threads

MPI task timing breakdown:
Section |  min time  |  avg time  |  max time  |%varavg| %total
---------------------------------------------------------------
Pair    | 1.4218     | 1.5624     | 1.676      |   5.4 |  7.04
Neigh   | 0.59368    | 0.63569    | 0.67786    |   2.7 |  2.86
Comm    | 0.89028    | 1.0247     | 1.2077     |   8.3 |  4.62
Output  | 12.678     | 13.073     | 18.94      |  41.9 | 58.88
Modify  | 0.03265    | 5.8995     | 6.2944     |  62.4 | 26.57
Other   |            | 0.008328   |            |       |  0.04

Nlocal:    62.5 ave 67 max 57 min
Histogram: 1 0 1 3 2 2 0 2 2 3
Nghost:    1860.62 ave 1881 max 1837 min
Histogram: 1 1 1 3 1 3 1 1 2 2
Neighs:    0 ave 0 max 0 min
Histogram: 16 0 0 0 0 0 0 0 0 0
FullNghs:  18830.2 ave 20513 max 17106 min
Histogram: 1 1 4 0 3 0 2 1 3 1

Total # of neighbors = 301284
Ave neighs/atom = 301.284
Neighbor list builds = 1000
Dangerous builds not checked
Setting up Verlet run ...
  Unit style    : real
  Current step  : 17000
  Time step     : 1
Per MPI rank memory allocation (min/avg/max) = 4.576 | 4.578 | 4.58 Mbytes
Step Temp E_pair E_mol TotEng Press Volume Lx Ly Lz S/CPU 
   17000     309.2991   -10509.253            0    -9588.213    1391.9676     784.6898    9.2235761    9.2235761    9.2235761            0 
   17100    310.84949     -10497.1            0   -9571.4437   -4552.1696    786.00787    9.2287376    9.2287376    9.2287376    46.289416 
   17200    295.19712   -10438.603            0   -9559.5566    9448.2591    787.59836    9.2349582    9.2349582    9.2349582    53.829949 
   17300    291.43341   -10419.697            0   -9551.8582      -2992.1    789.13816    9.2409726    9.2409726    9.2409726     48.91954 
   17400    302.46396    -10448.19            0   -9547.5041   -12499.483    790.34782     9.245692     9.245692     9.245692    41.291383 
   17500    299.50955   -10434.872            0   -9542.9837   -3697.7068     790.9788    9.2481518    9.2481518    9.2481518    42.963415 
   17600    305.03503   -10448.387            0   -9540.0449   -10749.739    791.02097    9.2483161    9.2483161    9.2483161    39.845659 
   17700    302.27526   -10438.981            0   -9538.8564   -5609.2087    790.29875    9.2455006    9.2455006    9.2455006       46.923 
   17800     296.1605   -10418.128            0   -9536.2124    22136.334     789.1913      9.24118      9.24118      9.24118    45.264825 
   17900    301.20765   -10433.208            0   -9536.2626    2281.0752    788.71213    9.2393093    9.2393093    9.2393093    59.608349 
   18000    310.43884   -10461.186            0   -9536.7524    12153.769    788.84679    9.2398351    9.2398351    9.2398351    35.644335 
Loop time of 22.1448 on 16 procs for 1000 steps with 1000 atoms

Performance: 3.902 ns/day, 6.151 hours/ns, 45.157 timesteps/s
94.4% CPU use with 16 MPI tasks x no OpenMP threads

MPI task timing breakdown:
Section |  min time  |  avg time  |  max time  |%varavg| %total
---------------------------------------------------------------
Pair    | 1.466      | 1.5835     | 1.8138     |   7.2 |  7.15
Neigh   | 0.60582    | 0.65029    | 0.72208    |   3.5 |  2.94
Comm    | 0.70665    | 1.0087     | 1.1713     |  11.7 |  4.55
Output  | 12.706     | 13.095     | 18.862     |  41.2 | 59.13
Modify  | 0.030975   | 5.7993     | 6.188      |  61.8 | 26.19
Other   |            | 0.008385   |            |       |  0.04

Nlocal:    62.5 ave 67 max 60 min
Histogram: 2 5 2 0 3 1 0 1 1 1
Nghost:    1847.81 ave 1858 max 1833 min
Histogram: 1 0 1 1 4 0 2 4 2 1
Neighs:    0 ave 0 max 0 min
Histogram: 16 0 0 0 0 0 0 0 0 0
FullNghs:  18708.2 ave 20029 max 17856 min
Histogram: 3 2 4 0 2 1 1 1 0 2

Total # of neighbors = 299332
Ave neighs/atom = 299.332
Neighbor list builds = 1000
Dangerous builds not checked
Setting up Verlet run ...
  Unit style    : real
  Current step  : 18000
  Time step     : 1
Per MPI rank memory allocation (min/avg/max) = 4.576 | 4.578 | 4.58 Mbytes
Step Temp E_pair E_mol TotEng Press Volume Lx Ly Lz S/CPU 
   18000    310.43884   -10461.186            0   -9536.7524    12153.769    788.84679    9.2398351    9.2398351    9.2398351            0 
   18100    307.42879   -10453.077            0   -9537.6063    6585.7607      789.756    9.2433836    9.2433836    9.2433836    46.758621 
   18200    297.31044   -10426.027            0   -9540.6874    5048.6199    790.95603     9.248063     9.248063     9.248063    53.823685 
   18300    311.89436   -10476.502            0   -9547.7338   -8409.5831    792.11835    9.2525909    9.2525909    9.2525909    49.796456 
   18400    299.11982   -10445.727            0   -9554.9994   -7577.8499    793.01806    9.2560926    9.2560926    9.2560926    50.108472 
   18500    307.44345   -10479.944            0   -9564.4301   -6606.3506     793.4897    9.2579273    9.2579273    9.2579273    46.666274 
   18600    299.21919   -10465.189            0   -9574.1652   -18113.096    792.90667    9.2556592    9.2556592    9.2556592    56.888963 
   18700    305.00774   -10493.249            0   -9584.9877   -10843.563    791.49348    9.2501572    9.2501572    9.2501572    55.763241 
   18800    294.84372   -10471.282            0   -9593.2874   -12737.877    789.54227    9.2425497    9.2425497    9.2425497    44.384914 
   18900     307.4493   -10516.502            0   -9600.9706   -3788.8644    787.13186    9.2331345    9.2331345    9.2331345     44.02845 
   19000    289.77271   -10469.282            0   -9606.3882    -703.1842    784.19181    9.2216245    9.2216245    9.2216245    53.558527 
Loop time of 20.0858 on 16 procs for 1000 steps with 1000 atoms

Performance: 4.302 ns/day, 5.579 hours/ns, 49.786 timesteps/s
94.5% CPU use with 16 MPI tasks x no OpenMP threads

MPI task timing breakdown:
Section |  min time  |  avg time  |  max time  |%varavg| %total
---------------------------------------------------------------
Pair    | 1.4603     | 1.5612     | 1.7322     |   5.1 |  7.77
Neigh   | 0.61466    | 0.6443     | 0.70921    |   2.5 |  3.21
Comm    | 0.7706     | 1.0078     | 1.1236     |   8.1 |  5.02
Output  | 11.705     | 12.029     | 16.834     |  35.8 | 59.89
Modify  | 0.029965   | 4.8347     | 5.1589     |  56.4 | 24.07
Other   |            | 0.008405   |            |       |  0.04

Nlocal:    62.5 ave 68 max 57 min
Histogram: 1 0 0 4 6 0 1 3 0 1
Nghost:    1850.62 ave 1868 max 1831 min
Histogram: 1 1 1 1 2 5 2 0 1 2
Neighs:    0 ave 0 max 0 min
Histogram: 16 0 0 0 0 0 0 0 0 0
FullNghs:  18811.1 ave 20439 max 17065 min
Histogram: 1 0 0 3 6 1 1 3 0 1

Total # of neighbors = 300978
Ave neighs/atom = 300.978
Neighbor list builds = 1000
Dangerous builds not checked
Setting up Verlet run ...
  Unit style    : real
  Current step  : 19000
  Time step     : 1
Per MPI rank memory allocation (min/avg/max) = 4.576 | 4.578 | 4.58 Mbytes
Step Temp E_pair E_mol TotEng Press Volume Lx Ly Lz S/CPU 
   19000    289.77271   -10469.282            0   -9606.3882    -703.1842    784.19181    9.2216245    9.2216245    9.2216245            0 
   19100    289.94296   -10474.033            0   -9610.6321    24466.027    780.95125    9.2089046    9.2089046    9.2089046    39.709915 
   19200    298.14252    -10500.82            0   -9613.0027    9488.5945    778.46656    9.1991278    9.1991278    9.1991278    64.659409 
   19300     302.7244    -10515.83            0   -9614.3685    10337.142    776.87035    9.1928361    9.1928361    9.1928361     51.60977 
   19400    289.14636    -10476.26            0   -9615.2319    5648.7566    776.06498    9.1896583    9.1896583    9.1896583    37.820687 
   19500     308.0148   -10534.374            0   -9617.1588    11201.655    775.93749     9.189155     9.189155     9.189155      45.3308 
   19600    307.70425   -10534.301            0   -9618.0104    12019.905    776.53064    9.1914959    9.1914959    9.1914959    35.029784 
   19700    296.29376   -10502.271            0   -9619.9583    17143.183    778.01317    9.1973416    9.1973416    9.1973416    49.908406 
   19800     302.5121   -10521.735            0   -9620.9059    11341.315     780.4808    9.2070551    9.2070551    9.2070551    56.309879 
   19900    292.74511   -10494.727            0   -9622.9817    8787.2608    783.93342    9.2206116    9.2206116    9.2206116    47.335638 
   20000    306.68782   -10540.303            0   -9627.0386   -16444.142     787.2875    9.2337431    9.2337431    9.2337431    49.452198 
Loop time of 21.6215 on 16 procs for 1000 steps with 1000 atoms

Performance: 3.996 ns/day, 6.006 hours/ns, 46.250 timesteps/s
94.4% CPU use with 16 MPI tasks x no OpenMP threads

MPI task timing breakdown:
Section |  min time  |  avg time  |  max time  |%varavg| %total
---------------------------------------------------------------
Pair    | 1.5481     | 1.6202     | 1.7992     |   5.3 |  7.49
Neigh   | 0.61445    | 0.65383    | 0.70332    |   2.6 |  3.02
Comm    | 0.81881    | 1.0476     | 1.159      |   8.4 |  4.84
Output  | 12.414     | 12.783     | 18.255     |  39.5 | 59.12
Modify  | 0.036428   | 5.5085     | 5.8771     |  60.2 | 25.48
Other   |            | 0.008439   |            |       |  0.04

Nlocal:    62.5 ave 67 max 55 min
Histogram: 1 0 1 1 0 2 6 1 2 2
Nghost:    1843.75 ave 1856 max 1826 min
Histogram: 1 0 1 3 0 3 1 2 2 3
Neighs:    0 ave 0 max 0 min
Histogram: 16 0 0 0 0 0 0 0 0 0
FullNghs:  18711.6 ave 20170 max 16268 min
Histogram: 1 0 1 1 0 2 4 4 1 2

Total # of neighbors = 299386
Ave neighs/atom = 299.386
Neighbor list builds = 1000
Dangerous builds not checked
Setting up Verlet run ...
  Unit style    : real
  Current step  : 20000
  Time step     : 1
Per MPI rank memory allocation (min/avg/max) = 4.576 | 4.578 | 4.58 Mbytes
Step Temp E_pair E_mol TotEng Press Volume Lx Ly Lz S/CPU 
   20000    306.68782   -10540.303            0   -9627.0386   -16444.142     787.2875    9.2337431    9.2337431    9.2337431            0 
   20100    295.68145   -10510.215            0   -9629.7266    -10942.17    789.88424    9.2438839    9.2438839    9.2438839    51.115001 
   20200     298.8104    -10525.78            0   -9635.9737   -10596.152    791.86207    9.2515929    9.2515929    9.2515929    28.259212 
   20300     297.2147   -10527.415            0     -9642.36   -5975.6454    793.17363    9.2566979    9.2566979    9.2566979    51.314305 
   20400    300.41503   -10543.968            0   -9649.3836   -8753.0633    793.61529    9.2584157    9.2584157    9.2584157    42.742674 
   20500     289.2292   -10516.047            0   -9654.7716   -10279.444     793.0002    9.2560231    9.2560231    9.2560231    59.998053 
   20600    296.54221   -10542.144            0   -9659.0919   -11436.263    791.36953    9.2496743    9.2496743    9.2496743    51.168887 
   20700    285.45767   -10510.912            0    -9660.868   -11290.473    788.62072    9.2389524    9.2389524    9.2389524    50.628707 
   20800    297.72325   -10547.552            0   -9660.9826   -2475.9389    785.18934     9.225533     9.225533     9.225533    42.841106 
   20900    296.82343   -10543.102            0   -9659.2124   -10355.952    781.70484    9.2118658    9.2118658    9.2118658    48.880724 
   21000    305.35496   -10568.121            0   -9658.8258   -1277.7123    777.89032    9.1968575    9.1968575    9.1968575    44.562843 
Loop time of 22.0036 on 16 procs for 1000 steps with 1000 atoms

Performance: 3.927 ns/day, 6.112 hours/ns, 45.447 timesteps/s
94.4% CPU use with 16 MPI tasks x no OpenMP threads

MPI task timing breakdown:
Section |  min time  |  avg time  |  max time  |%varavg| %total
---------------------------------------------------------------
Pair    | 1.4445     | 1.5588     | 1.7259     |   6.2 |  7.08
Neigh   | 0.61358    | 0.64129    | 0.69162    |   3.0 |  2.91
Comm    | 0.84058    | 1.0503     | 1.1911     |   9.7 |  4.77
Output  | 12.694     | 13.074     | 18.711     |  40.3 | 59.42
Modify  | 0.034156   | 5.6712     | 6.0509     |  61.1 | 25.77
Other   |            | 0.008288   |            |       |  0.04

Nlocal:    62.5 ave 66 max 59 min
Histogram: 2 0 4 0 2 2 0 3 2 1
Nghost:    1856.69 ave 1872 max 1846 min
Histogram: 3 0 2 5 1 1 1 1 1 1
Neighs:    0 ave 0 max 0 min
Histogram: 16 0 0 0 0 0 0 0 0 0
FullNghs:  18960 ave 20074 max 17647 min
Histogram: 2 0 0 5 0 2 2 1 2 2

Total # of neighbors = 303360
Ave neighs/atom = 303.36
Neighbor list builds = 1000
Dangerous builds not checked
Setting up Verlet run ...
  Unit style    : real
  Current step  : 21000
  Time step     : 1
Per MPI rank memory allocation (min/avg/max) = 4.576 | 4.578 | 4.58 Mbytes
Step Temp E_pair E_mol TotEng Press Volume Lx Ly Lz S/CPU 
   21000    305.35496   -10568.121            0   -9658.8258   -1277.7123    777.89032    9.1968575    9.1968575    9.1968575            0 
   21100    305.94014   -10566.033            0   -9654.9951    10742.379     773.9909    9.1814643    9.1814643    9.1814643    47.266462 
   21200    303.47978   -10555.711            0   -9652.0002    11591.274    770.87547    9.1691288    9.1691288    9.1691288    60.202967 
   21300    315.15036   -10587.661            0   -9649.1971    21329.633      768.999    9.1616829    9.1616829    9.1616829    47.430596 
   21400    302.73897   -10547.031            0   -9645.5257    28693.893    768.90964    9.1613281    9.1613281    9.1613281    55.930695 
   21500    294.88702   -10521.294            0   -9643.1709    12958.743     770.6253    9.1681368    9.1681368    9.1681368    59.532335 
   21600    299.89341   -10534.202            0   -9641.1704    6158.8701    773.60528    9.1799393    9.1799393    9.1799393    35.078977 
   21700    305.23923    -10547.04            0   -9638.0892    4060.5782    777.15841    9.1939722    9.1939722    9.1939722    60.512353 
   21800     306.8701   -10548.027            0   -9634.2204   -10298.277    780.96197    9.2089468    9.2089468    9.2089468    57.353588 
   21900    308.46006   -10547.315            0   -9628.7741   -19623.536    784.09479    9.2212442    9.2212442    9.2212442    49.085392 
   22000      299.279   -10514.364            0   -9623.1627   -3678.6107    786.21883    9.2295632    9.2295632    9.2295632    61.779748 
Loop time of 19.2555 on 16 procs for 1000 steps with 1000 atoms

Performance: 4.487 ns/day, 5.349 hours/ns, 51.933 timesteps/s
94.6% CPU use with 16 MPI tasks x no OpenMP threads

MPI task timing breakdown:
Section |  min time  |  avg time  |  max time  |%varavg| %total
---------------------------------------------------------------
Pair    | 1.5118     | 1.6281     | 1.8169     |   6.3 |  8.46
Neigh   | 0.60746    | 0.65111    | 0.70769    |   3.1 |  3.38
Comm    | 0.79675    | 1.0408     | 1.2011     |  10.1 |  5.41
Output  | 10.686     | 11.017     | 15.891     |  37.9 | 57.21
Modify  | 0.036027   | 4.9104     | 5.2412     |  56.8 | 25.50
Other   |            | 0.008463   |            |       |  0.04

Nlocal:    62.5 ave 68 max 59 min
Histogram: 2 3 1 3 3 0 0 3 0 1
Nghost:    1846.25 ave 1862 max 1837 min
Histogram: 2 2 4 2 1 2 1 1 0 1
Neighs:    0 ave 0 max 0 min
Histogram: 16 0 0 0 0 0 0 0 0 0
FullNghs:  18763.5 ave 20369 max 17583 min
Histogram: 2 3 1 3 2 1 0 2 1 1

Total # of neighbors = 300216
Ave neighs/atom = 300.216
Neighbor list builds = 1000
Dangerous builds not checked
Setting up Verlet run ...
  Unit style    : real
  Current step  : 22000
  Time step     : 1
Per MPI rank memory allocation (min/avg/max) = 4.576 | 4.578 | 4.58 Mbytes
Step Temp E_pair E_mol TotEng Press Volume Lx Ly Lz S/CPU 
   22000      299.279   -10514.364            0   -9623.1627   -3678.6107    786.21883    9.2295632    9.2295632    9.2295632            0 
   22100    314.94302   -10554.528            0   -9616.6812   -13042.553    787.84353    9.2359163    9.2359163    9.2359163    43.115813 
   22200    303.12469   -10513.048            0    -9610.394   -4216.8024    788.97169    9.2403228    9.2403228    9.2403228     42.13354 
   22300    297.76455   -10490.878            0    -9604.186   -4449.3754    789.51996    9.2424627    9.2424627    9.2424627    55.714786 
   22400    315.28148   -10537.724            0   -9598.8697   -800.39841    789.90544    9.2439666    9.2439666    9.2439666    37.775363 
   22500    291.30644   -10459.396            0   -9591.9356   -3689.0564    790.28563    9.2454494    9.2454494    9.2454494    51.578732 
   22600    307.51133   -10502.467            0   -9586.7506   -8728.6665    790.29843    9.2454994    9.2454994    9.2454994    54.337197 
   22700    310.05254    -10502.91            0   -9579.6262    1322.8246    790.02046    9.2444153    9.2444153    9.2444153    48.566352 
   22800    307.24922   -10486.495            0   -9571.5594    7238.5167    789.59859    9.2427695    9.2427695    9.2427695    59.994864 
   22900    298.50303   -10450.857            0    -9561.966   -5219.4526    789.09794    9.2408156    9.2408156    9.2408156    60.500498 
   23000    311.51227   -10483.773            0    -9556.143    16662.986    788.61157    9.2389166    9.2389166    9.2389166    45.736145 
Loop time of 20.4792 on 16 procs for 1000 steps with 1000 atoms

Performance: 4.219 ns/day, 5.689 hours/ns, 48.830 timesteps/s
94.5% CPU use with 16 MPI tasks x no OpenMP threads

MPI task timing breakdown:
Section |  min time  |  avg time  |  max time  |%varavg| %total
---------------------------------------------------------------
Pair    | 1.4787     | 1.5606     | 1.7093     |   4.6 |  7.62
Neigh   | 0.60507    | 0.64347    | 0.69655    |   2.4 |  3.14
Comm    | 0.79779    | 0.99977    | 1.1201     |   7.3 |  4.88
Output  | 11.756     | 12.102     | 17.238     |  38.1 | 59.09
Modify  | 0.028381   | 5.165      | 5.5111     |  58.4 | 25.22
Other   |            | 0.008357   |            |       |  0.04

Nlocal:    62.5 ave 70 max 55 min
Histogram: 1 1 0 3 2 4 2 1 0 2
Nghost:    1852.19 ave 1868 max 1842 min
Histogram: 2 5 1 1 1 2 2 0 1 1
Neighs:    0 ave 0 max 0 min
Histogram: 16 0 0 0 0 0 0 0 0 0
FullNghs:  18717.5 ave 20931 max 16415 min
Histogram: 1 1 0 4 1 5 1 1 0 2

Total # of neighbors = 299480
Ave neighs/atom = 299.48
Neighbor list builds = 1000
Dangerous builds not checked
Setting up Verlet run ...
  Unit style    : real
  Current step  : 23000
  Time step     : 1
Per MPI rank memory allocation (min/avg/max) = 4.576 | 4.578 | 4.58 Mbytes
Step Temp E_pair E_mol TotEng Press Volume Lx Ly Lz S/CPU 
   23000    311.51227   -10483.773            0    -9556.143    16662.986    788.61157    9.2389166    9.2389166    9.2389166            0 
   23100    308.59245   -10470.009            0   -9551.0738    9851.5877    788.78148    9.2395801    9.2395801    9.2395801    48.763626 
   23200    316.50692   -10489.665            0   -9547.1615    6951.4393    789.43098    9.2421154    9.2421154    9.2421154    59.761673 
   23300     317.1046   -10492.198            0   -9547.9146    10792.159    790.30852    9.2455387    9.2455387    9.2455387    36.590266 
   23400    305.54683   -10458.676            0   -9548.8097    7967.3146     791.2172    9.2490808    9.2490808    9.2490808    57.204233 
   23500     316.5822   -10497.658            0   -9554.9301   -7681.5125    791.95948    9.2519722    9.2519722    9.2519722    60.083486 
   23600    296.87539    -10448.07            0   -9564.0259   -3834.8951    792.80041    9.2552458    9.2552458    9.2552458    52.366347 
   23700      293.789   -10452.623            0   -9577.7698   -784.17401    793.21164    9.2568457    9.2568457    9.2568457    57.630013 
   23800    290.75026   -10459.296            0   -9593.4915   -5911.0995    793.05633    9.2562415    9.2562415    9.2562415    59.990151 
   23900    299.86077   -10501.357            0   -9608.4227    11897.207    792.46595    9.2539441    9.2539441    9.2539441    52.240014 
   24000    298.15007   -10506.996            0    -9619.156   -12659.188    791.84094    9.2515106    9.2515106    9.2515106     53.13462 
Loop time of 18.9775 on 16 procs for 1000 steps with 1000 atoms

Performance: 4.553 ns/day, 5.272 hours/ns, 52.694 timesteps/s
94.5% CPU use with 16 MPI tasks x no OpenMP threads

MPI task timing breakdown:
Section |  min time  |  avg time  |  max time  |%varavg| %total
---------------------------------------------------------------
Pair    | 1.4337     | 1.5424     | 1.7361     |   6.6 |  8.13
Neigh   | 0.60542    | 0.6387     | 0.69282    |   3.5 |  3.37
Comm    | 0.79157    | 1.0392     | 1.1801     |  10.7 |  5.48
Output  | 10.507     | 10.836     | 15.716     |  38.3 | 57.10
Modify  | 0.032638   | 4.9127     | 5.242      |  56.8 | 25.89
Other   |            | 0.008279   |            |       |  0.04

Nlocal:    62.5 ave 68 max 54 min
Histogram: 1 0 0 3 2 1 1 5 1 2
Nghost:    1842.75 ave 1862 max 1826 min
Histogram: 1 1 3 3 1 0 5 0 1 1
Neighs:    0 ave 0 max 0 min
Histogram: 16 0 0 0 0 0 0 0 0 0
FullNghs:  18630.8 ave 20262 max 16137 min
Histogram: 1 0 0 3 3 0 1 4 2 2

Total # of neighbors = 298092
Ave neighs/atom = 298.092
Neighbor list builds = 1000
Dangerous builds not checked
Setting up Verlet run ...
  Unit style    : real
  Current step  : 24000
  Time step     : 1
Per MPI rank memory allocation (min/avg/max) = 4.576 | 4.578 | 4.58 Mbytes
Step Temp E_pair E_mol TotEng Press Volume Lx Ly Lz S/CPU 
   24000    298.15007   -10506.996            0    -9619.156   -12659.188    791.84094    9.2515106    9.2515106    9.2515106            0 
   24100    291.74471   -10495.604            0   -9626.8386   -8469.6311    791.10218    9.2486326    9.2486326    9.2486326    51.654098 
   24200    290.06755   -10495.597            0    -9631.825   -21256.897    789.87065    9.2438309    9.2438309    9.2438309    51.740917 
   24300    302.73998   -10538.112            0   -9636.6042    833.51754    787.79774    9.2357374    9.2357374    9.2357374    58.800809 
   24400    293.06128   -10512.486            0   -9639.7992   -2412.0127    785.44718    9.2265427    9.2265427    9.2265427    54.466624 
   24500    287.53636   -10497.614            0     -9641.38     6117.174    783.07866    9.2172591    9.2172591    9.2172591    46.860338 
   24600    287.48806   -10497.608            0   -9641.5177   -10469.308    781.18822     9.209836     9.209836     9.209836    43.379851 
   24700    298.88504    -10530.23            0   -9640.2019    6892.9795    779.38417    9.2027409    9.2027409    9.2027409    47.506993 
   24800    300.22192   -10531.493            0   -9637.4837     -5921.17    777.78641    9.1964479    9.1964479    9.1964479    42.550251 
   24900    298.68885   -10522.005            0   -9632.5606    7982.4485    776.29417    9.1905628    9.1905628    9.1905628    58.114888 
   25000    299.26485     -10518.2            0   -9627.0399    2481.9347    775.24689    9.1864281    9.1864281    9.1864281    55.312157 
Loop time of 19.8283 on 16 procs for 1000 steps with 1000 atoms

Performance: 4.357 ns/day, 5.508 hours/ns, 50.433 timesteps/s
94.5% CPU use with 16 MPI tasks x no OpenMP threads

MPI task timing breakdown:
Section |  min time  |  avg time  |  max time  |%varavg| %total
---------------------------------------------------------------
Pair    | 1.4318     | 1.585      | 1.7673     |   7.0 |  7.99
Neigh   | 0.60864    | 0.64682    | 0.71114    |   3.6 |  3.26
Comm    | 0.7721     | 1.0189     | 1.2111     |  11.3 |  5.14
Output  | 11.281     | 11.613     | 16.533     |  37.3 | 58.57
Modify  | 0.035453   | 4.9565     | 5.2882     |  57.1 | 25.00
Other   |            | 0.008442   |            |       |  0.04

Nlocal:    62.5 ave 70 max 57 min
Histogram: 1 2 3 3 1 1 3 1 0 1
Nghost:    1869.56 ave 1891 max 1849 min
Histogram: 3 0 0 3 2 1 3 2 1 1
Neighs:    0 ave 0 max 0 min
Histogram: 16 0 0 0 0 0 0 0 0 0
FullNghs:  19028 ave 21354 max 17422 min
Histogram: 1 3 3 2 1 1 3 1 0 1

Total # of neighbors = 304448
Ave neighs/atom = 304.448
Neighbor list builds = 1000
Dangerous builds not checked
Setting up Verlet run ...
  Unit style    : real
  Current step  : 25000
  Time step     : 1
Per MPI rank memory allocation (min/avg/max) = 4.576 | 4.578 | 4.58 Mbytes
Step Temp E_pair E_mol TotEng Press Volume Lx Ly Lz S/CPU 
   25000    299.26485     -10518.2            0   -9627.0399    2481.9347    775.24689    9.1864281    9.1864281    9.1864281            0 
   25100    290.84983   -10486.593            0   -9620.4914    576.92081    774.62618    9.1839757    9.1839757    9.1839757    43.572389 
   25200    299.88174   -10507.531            0    -9614.534    18924.267    774.49032    9.1834387    9.1834387    9.1834387     54.32832 
   25300    305.24555   -10514.784            0   -9605.8145    8378.6585     775.4263    9.1871366    9.1871366    9.1871366    51.430675 
   25400    298.73113   -10486.182            0   -9596.6118   -4361.4942    776.80892    9.1925937    9.1925937    9.1925937    57.579208 
   25500    295.64423   -10467.189            0   -9586.8107    9897.0115    778.28315    9.1984053    9.1984053    9.1984053    51.304765 
   25600    306.44734   -10489.818            0   -9577.2701    13576.388    780.03648    9.2053076    9.2053076    9.2053076    56.148795 
   25700      298.597   -10456.197            0   -9567.0256   -13220.572    782.26643    9.2140712    9.2140712    9.2140712     62.12202 
   25800    296.72915   -10441.986            0   -9558.3768   -13177.042    784.24127    9.2218184    9.2218184    9.2218184    48.070107 
   25900     293.5125   -10424.842            0    -9550.812   -5635.5961    785.49827    9.2267427    9.2267427    9.2267427    59.110466 
   26000    310.45803    -10473.45            0   -9548.9593    11907.018    786.58152    9.2309822    9.2309822    9.2309822    52.273135 
Loop time of 18.8417 on 16 procs for 1000 steps with 1000 atoms

Performance: 4.586 ns/day, 5.234 hours/ns, 53.074 timesteps/s
94.6% CPU use with 16 MPI tasks x no OpenMP threads

MPI task timing breakdown:
Section |  min time  |  avg time  |  max time  |%varavg| %total
---------------------------------------------------------------
Pair    | 1.5316     | 1.6184     | 1.762      |   5.3 |  8.59
Neigh   | 0.61984    | 0.65149    | 0.70001    |   2.5 |  3.46
Comm    | 0.85431    | 1.0465     | 1.1574     |   8.1 |  5.55
Output  | 10.374     | 10.697     | 15.483     |  37.8 | 56.77
Modify  | 0.034138   | 4.8202     | 5.1429     |  56.3 | 25.58
Other   |            | 0.008419   |            |       |  0.04

Nlocal:    62.5 ave 67 max 57 min
Histogram: 1 0 3 1 2 1 0 2 3 3
Nghost:    1856.06 ave 1870 max 1844 min
Histogram: 1 2 4 1 1 1 1 3 1 1
Neighs:    0 ave 0 max 0 min
Histogram: 16 0 0 0 0 0 0 0 0 0
FullNghs:  18767.6 ave 20139 max 17095 min
Histogram: 1 2 2 1 1 1 1 3 1 3

Total # of neighbors = 300282
Ave neighs/atom = 300.282
Neighbor list builds = 1000
Dangerous builds not checked
Setting up Verlet run ...
  Unit style    : real
  Current step  : 26000
  Time step     : 1
Per MPI rank memory allocation (min/avg/max) = 4.576 | 4.578 | 4.58 Mbytes
Step Temp E_pair E_mol TotEng Press Volume Lx Ly Lz S/CPU 
   26000    310.45803    -10473.45            0   -9548.9593    11907.018    786.58152    9.2309822    9.2309822    9.2309822            0 
   26100    309.71676   -10467.725            0   -9545.4412    2394.3677    788.03224    9.2366537    9.2366537    9.2366537    50.466828 
   26200     300.8321   -10440.127            0   -9544.3008    -13686.52    789.15478    9.2410375    9.2410375    9.2410375     52.60382 
   26300    303.28332   -10447.469            0   -9544.3431   -9936.1108    789.84823    9.2437435    9.2437435    9.2437435    40.816134 
   26400    307.03067   -10459.473            0   -9545.1879   -12116.938    789.93444    9.2440797    9.2440797    9.2440797    57.059014 
   26500    298.42589   -10433.598            0   -9544.9366    5704.6067    789.66352    9.2430228    9.2430228    9.2430228     55.60206 
   26600    315.02232   -10486.563            0   -9548.4808   -732.50016    789.41629    9.2420581    9.2420581    9.2420581    49.503485 
   26700    307.65036   -10467.231            0   -9551.1009    -7685.991    788.74904    9.2394534    9.2394534    9.2394534    55.730046 
   26800    299.09695   -10445.458            0   -9554.7987   -11741.685    787.40545    9.2342041    9.2342041    9.2342041    36.311446 
   26900    307.58974   -10474.978            0   -9559.0279    649.84949     785.9549    9.2285303    9.2285303    9.2285303    45.116899 
   27000    302.49968   -10464.566            0   -9563.7732    6799.9202    784.88381    9.2243362    9.2243362    9.2243362     54.14326 
Loop time of 20.5154 on 16 procs for 1000 steps with 1000 atoms

Performance: 4.211 ns/day, 5.699 hours/ns, 48.744 timesteps/s
94.5% CPU use with 16 MPI tasks x no OpenMP threads

MPI task timing breakdown:
Section |  min time  |  avg time  |  max time  |%varavg| %total
---------------------------------------------------------------
Pair    | 1.4989     | 1.6091     | 1.7314     |   4.5 |  7.84
Neigh   | 0.61633    | 0.65768    | 0.7089     |   2.8 |  3.21
Comm    | 0.80865    | 0.98207    | 1.1333     |   7.9 |  4.79
Output  | 11.581     | 11.936     | 17.215     |  39.4 | 58.18
Modify  | 0.043086   | 5.3218     | 5.678      |  59.1 | 25.94
Other   |            | 0.0084     |            |       |  0.04

Nlocal:    62.5 ave 67 max 58 min
Histogram: 1 1 3 3 0 0 3 3 1 1
Nghost:    1847.31 ave 1867 max 1827 min
Histogram: 1 1 1 3 1 3 2 2 1 1
Neighs:    0 ave 0 max 0 min
Histogram: 16 0 0 0 0 0 0 0 0 0
FullNghs:  18804.6 ave 20350 max 17507 min
Histogram: 2 2 4 0 0 0 3 3 1 1

Total # of neighbors = 300874
Ave neighs/atom = 300.874
Neighbor list builds = 1000
Dangerous builds not checked
Setting up Verlet run ...
  Unit style    : real
  Current step  : 27000
  Time step     : 1
Per MPI rank memory allocation (min/avg/max) = 4.576 | 4.578 | 4.58 Mbytes
Step Temp E_pair E_mol TotEng Press Volume Lx Ly Lz S/CPU 
   27000    302.49968   -10464.566            0   -9563.7732    6799.9202    784.88381    9.2243362    9.2243362    9.2243362            0 
   27100     289.3732   -10430.904            0   -9569.2004    1680.5554    784.35153    9.2222505    9.2222505    9.2222505    50.560116 
   27200    303.33647   -10478.151            0   -9574.8673    1542.6968    784.38252     9.222372     9.222372     9.222372    51.788156 
   27300    302.51154   -10482.122            0   -9581.2943    9800.1207    784.53142    9.2229555    9.2229555    9.2229555    60.101094 
   27400    294.51197   -10463.241            0   -9586.2343   -3961.3099    784.82664    9.2241123    9.2241123    9.2241123    43.563815 
   27500    299.55415   -10483.184            0   -9591.1626   -1.2797802    784.79713    9.2239966    9.2239966    9.2239966    62.581143 
   27600    300.10938   -10490.601            0   -9596.9267   -5633.9316    784.49032    9.2227945    9.2227945    9.2227945    63.492475 
   27700    296.25245    -10482.52            0   -9600.3308    6503.4613    784.11439     9.221321     9.221321     9.221321    41.318743 
   27800    302.11033   -10503.893            0   -9604.2604   -15078.487    784.08633     9.221211     9.221211     9.221211    43.049406 
   27900    308.02708   -10524.588            0   -9607.3364   -1692.1981    783.77874    9.2200051    9.2200051    9.2200051    56.763368 
   28000    302.25751   -10508.752            0   -9608.6808    8204.7396    783.05368    9.2171611    9.2171611    9.2171611    52.486052 
Loop time of 19.4512 on 16 procs for 1000 steps with 1000 atoms

Performance: 4.442 ns/day, 5.403 hours/ns, 51.411 timesteps/s
[...]
  572700    293.36941   -11489.986            0   -10616.382    12866.588    746.58565    9.0717947    9.0717947    9.0717947    48.196863 
  572800      280.649   -11457.724            0       -10622   -814.60242    748.36472    9.0789948    9.0789948    9.0789948    45.132799 
  572900    293.36544    -11505.87            0   -10632.278      -4507.2    750.24487    9.0865916    9.0865916    9.0865916    48.464432 
  573000    284.29611   -11488.326            0    -10641.74   -11501.757    751.77278    9.0927559    9.0927559    9.0927559    33.991011 
  573100    280.44684   -11487.069            0   -10651.946   -13287.426     752.4119    9.0953319    9.0953319    9.0953319    42.931689 
  573200    284.61605   -11509.194            0   -10661.656   -16969.511    751.85931    9.0931048    9.0931048    9.0931048    55.968715 
  573300    278.08612   -11495.032            0   -10666.939   -4330.0694    750.32967     9.086934     9.086934     9.086934    41.551569 
  573400    279.97806   -11503.641            0   -10669.914    1866.5964    748.28385    9.0786678    9.0786678    9.0786678    51.378714 
  573500    284.21441   -11514.949            0   -10668.607     10446.77    746.21573    9.0702961    9.0702961    9.0702961    49.714531 
  573600    293.12942   -11536.398            0   -10663.509    14697.035    744.75008    9.0643539    9.0643539    9.0643539     46.37045 
  573700    295.57666   -11536.561            0   -10656.384    19033.167    744.25853    9.0623592    9.0623592    9.0623592    45.746265 
  573800    296.15883   -11526.153            0   -10644.242    18401.568    744.96458     9.065224     9.065224     9.065224    61.684463 
  573900     289.8154   -11492.011            0    -10628.99    3728.7042    746.72339    9.0723526    9.0723526    9.0723526    49.685683 
  574000    299.06519   -11506.481            0   -10615.916   -725.93206    749.13461    9.0821071    9.0821071    9.0821071    47.149958 
  574100     299.7413   -11497.123            0   -10604.544   -6027.5014     751.5904    9.0920206    9.0920206    9.0920206     53.59574 
  574200    302.79631   -11497.292            0   -10595.616    -20016.91     753.4208    9.0993954    9.0993954    9.0993954    35.319994 
  574300    291.84997   -11456.487            0   -10587.408   -29304.719    754.22517    9.1026324    9.1026324    9.1026324    58.969933 
  574400    303.50465   -11485.297            0   -10581.512   -20076.638    753.68831    9.1004722    9.1004722    9.1004722    57.635261 
  574500    299.18108   -11466.593            0   -10575.683   -5723.4277    752.07774    9.0939852    9.0939852    9.0939852    51.844504 
  574600    305.74033   -11480.975            0   -10570.532    3190.7495    750.01909      9.08568      9.08568      9.08568    66.937098 
  574700    294.89576   -11443.068            0   -10564.918    8024.0607    748.09478    9.0779031    9.0779031    9.0779031    49.696733 
  574800    309.11699   -11482.577            0    -10562.08    10050.627    746.75737    9.0724901    9.0724901    9.0724901    50.983125 
  574900    300.21501   -11450.524            0   -10556.535    13896.546    746.25131    9.0704403    9.0704403    9.0704403     35.34623 
  575000    295.85587   -11434.539            0    -10553.53    14356.589    746.74431    9.0724373    9.0724373    9.0724373    43.707962 
  575100    298.88741   -11441.642            0   -10551.606    1910.8595    748.14508    9.0781065    9.0781065    9.0781065    57.415241 
  575200    300.53279   -11444.675            0   -10549.739    -6543.577    749.95448    9.0854191    9.0854191    9.0854191    39.047603 
  575300    299.53848   -11440.576            0   -10548.602   -8607.9685    751.70015    9.0924631    9.0924631    9.0924631    48.111831 
  575400    293.85402   -11422.609            0   -10547.562   -12609.451    753.05599    9.0979265    9.0979265    9.0979265    47.856417 
  575500    298.72897   -11437.695            0   -10548.132   -17389.911    753.51442    9.0997723    9.0997723    9.0997723    46.032622 
  575600    299.70179   -11441.171            0    -10548.71   -19425.463    752.97737    9.0976098    9.0976098    9.0976098    50.947512 
  575700    297.53689   -11437.902            0   -10551.888    2687.1209    751.51407    9.0917128    9.0917128    9.0917128    47.324228 
  575800     297.0798   -11439.948            0   -10555.295    5278.8701    749.69336    9.0843646    9.0843646    9.0843646    41.201817 
  575900    297.97956   -11446.163            0   -10558.831    5969.0554    748.03818    9.0776741    9.0776741    9.0776741    59.238097 
  576000    309.49613   -11488.611            0   -10566.984    9917.2061    746.97447    9.0733693    9.0733693    9.0733693    33.809325 
  576100    305.90189   -11486.941            0   -10576.018    16848.693    746.84645    9.0728509    9.0728509    9.0728509    54.092433 
  576200    289.39795    -11447.92            0   -10586.142    11696.093    747.63432    9.0760402    9.0760402    9.0760402    49.980988 
  576300     295.3321   -11477.899            0   -10598.451    -3476.897    749.06195    9.0818135    9.0818135    9.0818135    46.913064 
  576400    293.50909    -11482.46            0    -10608.44   -2946.4178    750.53146    9.0877485    9.0877485    9.0877485    54.635288 
  576500    298.12202   -11504.505            0   -10616.749   -12320.601    751.64346    9.0922345    9.0922345    9.0922345    51.126547 
  576600     290.1683    -11486.24            0   -10622.168   -17210.651    751.96389    9.0935263    9.0935263    9.0935263    39.530056 
  576700    294.19821   -11502.406            0   -10626.334    -12920.69    751.44141    9.0914197    9.0914197    9.0914197    54.992046 
  576800     286.7409   -11480.485            0   -10626.619    329.04105    750.35178    9.0870232    9.0870232    9.0870232    42.451464 
  576900    305.44509   -11536.139            0   -10626.576    -1298.255    748.99924      9.08156      9.08156      9.08156    46.945289 
  577000    292.10146   -11492.605            0   -10622.776    5335.3237    747.63615    9.0760476    9.0760476    9.0760476    54.857181 
  577100    293.78911    -11492.55            0   -10617.696     7179.501    746.68196    9.0721848    9.0721848    9.0721848    37.915059 
  577200    291.76568    -11478.05            0   -10609.222    14147.478    746.31163    9.0706847    9.0706847    9.0706847     41.92197 
  577300     298.2807    -11489.82            0   -10601.591    10810.641     746.6378    9.0720059    9.0720059    9.0720059    51.071194 
  577400    295.43642   -11470.899            0   -10591.139     12047.76    747.76186    9.0765562    9.0765562    9.0765562     38.29824 
  577500    293.86804   -11454.256            0   -10579.167   -3107.9194    749.43873     9.083336     9.083336     9.083336    57.125485 
  577600    306.60954   -11481.606            0   -10568.575   -2832.7066    751.24857    9.0906419    9.0906419    9.0906419    53.624498 
  577700    300.73813   -11452.599            0   -10557.052   -7133.0204    752.79114    9.0968598    9.0968598    9.0968598    42.462705 
  577800    304.47841   -11456.502            0   -10549.817   -9137.7191    753.66097    9.1003621    9.1003621    9.1003621    51.801623 
  577900    309.91691   -11467.885            0   -10545.005   -19334.979    753.75265    9.1007311    9.1007311    9.1007311    46.758239 
  578000    304.72336   -11451.064            0    -10543.65   -11673.278    753.05353    9.0979165    9.0979165    9.0979165    48.925702 
  578100    297.42994    -11427.28            0   -10541.585   -6076.3959    751.79538     9.092847     9.092847     9.092847    47.622828 
  578200    305.11598   -11450.911            0   -10542.327    2824.5068    750.13821     9.086161     9.086161     9.086161    63.925044 
  578300    308.47834   -11461.956            0    -10543.36    5498.9382    748.42818    9.0792514    9.0792514    9.0792514    32.284391 
  578400    302.08337   -11443.787            0   -10544.234    12851.891    747.14267    9.0740503    9.0740503    9.0740503    47.237628 
  578500    298.34125   -11432.836            0   -10544.426    7396.1703    746.72972    9.0723782    9.0723782    9.0723782    51.714049 
  578600    301.48463   -11444.289            0    -10546.52    19110.001    747.27397    9.0745818    9.0745818    9.0745818    45.871288 
  578700     304.8718   -11457.324            0   -10549.468     9394.467    748.62211    9.0800356    9.0800356    9.0800356    49.945722 
  578800    298.21769   -11440.092            0   -10552.051    1861.2429    750.43965    9.0873779    9.0873779    9.0873779    43.597178 
  578900    310.65312   -11481.146            0   -10556.074   -13183.101    752.15344    9.0942904    9.0942904    9.0942904    39.956798 
  579000    296.07706   -11439.254            0   -10557.587   -15724.833     753.2092    9.0985434    9.0985434    9.0985434    49.153757 
  579100     311.1137   -11487.847            0   -10561.403   -12604.226    753.35824    9.0991435    9.0991435    9.0991435    46.003816 
  579200    293.68109   -11439.318            0   -10564.786   -12662.791    752.59945    9.0960876    9.0960876    9.0960876    46.781284 
  579300    298.75504   -11457.721            0    -10568.08    -7680.845    750.99075    9.0896019    9.0896019    9.0896019    52.673993 
  579400    301.79891   -11470.335            0   -10571.629    2564.4295    749.02875    9.0816793    9.0816793    9.0816793    25.660289 
  579500    295.90264    -11456.69            0   -10575.543    14497.694    747.26033    9.0745266    9.0745266    9.0745266    41.366947 
  579600    283.14736   -11422.905            0   -10579.741    17934.322    746.18879     9.070187     9.070187     9.070187    32.122593 
  579700    306.95108   -11501.993            0   -10587.945    21324.972     746.1035    9.0698414    9.0698414    9.0698414    36.254145 
  579800    298.24566   -11482.744            0   -10594.619     12355.91    747.03333    9.0736076    9.0736076    9.0736076    34.035039 
  579900      303.948   -11506.989            0   -10601.884    935.56727    748.67668    9.0802562    9.0802562    9.0802562    39.975068 
  580000    291.12151    -11477.45            0   -10610.539   -7162.6195    750.54567    9.0878059    9.0878059    9.0878059    49.000144 
  580100    293.41256   -11491.639            0   -10617.907   -23545.284    752.26242    9.0947296    9.0947296    9.0947296    44.789153 
  580200    294.30238   -11499.324            0   -10622.942   -16038.989    753.12515     9.098205     9.098205     9.098205    51.188799 
  580300     289.1133   -11488.272            0   -10627.342   -17760.294    752.85663    9.0971236    9.0971236    9.0971236    44.290038 
  580400    280.89537   -11465.563            0   -10629.104   -9541.9375    751.44724    9.0914432    9.0914432    9.0914432    56.730487 
  580500    304.10836   -11535.631            0   -10630.048    5515.4877    749.27707    9.0826828    9.0826828    9.0826828    43.017748 
  580600    294.67215   -11504.699            0   -10627.216    10245.078    746.93505    9.0732097    9.0732097    9.0732097    54.028606 
  580700    297.88168    -11509.33            0   -10622.289    11498.785    744.88367    9.0648958    9.0648958    9.0648958    51.676842 
  580800     295.5932   -11494.035            0   -10613.808    19300.981    743.88818    9.0608558    9.0608558    9.0608558    49.235108 
  580900    298.25435   -11490.709            0   -10602.559    21430.265    744.30926    9.0625651    9.0625651    9.0625651    54.773299 
  581000    283.80633   -11433.696            0   -10588.569    12172.483    746.25821    9.0704683    9.0704683    9.0704683    52.972932 
  581100    293.90048    -11450.56            0   -10575.375   -7945.0664    749.36784    9.0830495    9.0830495    9.0830495    37.895196 
  581200    293.21993    -11436.06            0   -10562.901    -8658.926    752.94188    9.0974669    9.0974669    9.0974669    38.524815 
  581300    297.29744   -11437.133            0   -10551.832    -21757.92    755.99051    9.1097288    9.1097288    9.1097288    56.791115 
  581400    304.42465   -11450.308            0   -10543.784   -38038.334    757.64842    9.1163832    9.1163832    9.1163832    39.996905 
  581500    307.39092   -11454.694            0   -10539.337   -29371.587    757.30592    9.1150093    9.1150093    9.1150093    39.511418 
  581600    300.86263   -11431.117            0     -10535.2   -7449.7737    755.16069    9.1063945    9.1063945    9.1063945    54.823198 
  581700    306.03924   -11444.949            0   -10533.617   -7852.6909    751.79244    9.0928352    9.0928352    9.0928352    34.698241 
  581800    303.73882   -11435.401            0   -10530.918    8628.6257    747.82725    9.0768208    9.0768208    9.0768208    47.862431 
  581900    303.43521   -11434.185            0   -10530.607     25282.04    744.30398    9.0625437    9.0625437    9.0625437     56.05104 
  582000    312.42614   -11461.754            0   -10531.403    38060.095    742.27912    9.0543181    9.0543181    9.0543181    45.807896 
  582100    287.61899   -11388.714            0   -10532.234    24214.205    742.52242    9.0553072    9.0553072    9.0553072    46.214788 
  582200    307.97865   -11456.772            0   -10539.664    31127.829    744.89347    9.0649356    9.0649356    9.0649356    49.447391 
  582300    302.58097   -11447.343            0   -10546.308    4588.0408    748.99093    9.0815265    9.0815265    9.0815265    39.879757 
  582400    298.27199   -11440.645            0   -10552.442   -10995.465     753.5979    9.1001083    9.1001083    9.1001083    55.568613 
  582500    302.39475   -11460.514            0   -10560.034   -30723.956    757.46392    9.1156432    9.1156432    9.1156432    58.800337 
  582600    294.68951   -11443.965            0    -10566.43   -41043.336    759.50387     9.123819     9.123819     9.123819    35.867281 
  582700    293.31165   -11448.083            0   -10574.651   -39263.711    758.96705     9.121669     9.121669     9.121669    47.984237 
  582800     300.7277   -11479.377            0   -10583.861   -19814.648    755.84375    9.1091393    9.1091393    9.1091393    37.089781 
  582900    297.04811   -11474.683            0   -10590.125   -8842.9679    751.13608    9.0901882    9.0901882    9.0901882    57.420908 
  583000    300.41902   -11491.732            0   -10597.135    13688.597    746.05448    9.0696428    9.0696428    9.0696428     54.55733 
  583100    290.40563   -11466.813            0   -10602.035    32391.358    742.06031    9.0534283    9.0534283    9.0534283    41.875069 
  583200    295.33915   -11487.526            0   -10608.057    35292.343    740.20499    9.0458768    9.0458768    9.0458768    54.404397 
  583300    301.24354   -11513.574            0   -10616.523    37327.367    740.79377    9.0482746    9.0482746    9.0482746    47.117185 
  583400    294.88808    -11503.12            0   -10624.993    26139.821    743.76742    9.0603655    9.0603655    9.0603655    45.898634 
  583500    291.52179   -11502.132            0    -10634.03     691.3076    748.19154    9.0782944    9.0782944    9.0782944    46.363941 
  583600     285.7898   -11494.796            0   -10643.763   -16669.854    752.67147    9.0963777    9.0963777    9.0963777    47.868236 
  583700    288.68682   -11514.992            0   -10655.332   -32377.061       756.01    9.1098071    9.1098071    9.1098071    50.246039 
  583800    276.05418   -11489.243            0   -10667.201   -43209.514    757.19611    9.1145687    9.1145687    9.1145687    59.240775 
  583900     280.7944   -11516.383            0   -10680.225   -30101.085    755.77702    9.1088712    9.1088712    9.1088712    40.820716 
  584000    277.85302   -11518.161            0   -10690.762    -24383.89    752.34987     9.095082     9.095082     9.095082    47.898819 
  584100     280.1987   -11532.007            0   -10697.623    -3372.751    747.81582    9.0767746    9.0767746    9.0767746    34.024626 
  584200    290.60791    -11565.03            0    -10699.65    14547.141    743.46859    9.0591519    9.0591519    9.0591519    48.683115 
  584300    276.23796   -11518.295            0   -10695.706    30321.114    740.55541     9.047304     9.047304     9.047304     51.81686 
  584400    295.05562    -11567.66            0   -10689.035    31530.876    739.82159    9.0443147    9.0443147    9.0443147    45.284138 
  584500    293.08223   -11550.107            0   -10677.358    33623.461    741.41687    9.0508108    9.0508108    9.0508108    57.312839 
  584600     282.9851   -11503.141            0    -10660.46    19171.955    744.76431    9.0644116    9.0644116    9.0644116    50.614766 
  584700    289.28225   -11504.043            0    -10642.61   -4318.7989    748.76271     9.080604     9.080604     9.080604    46.032394 
  584800    289.64344   -11490.937            0   -10628.428   -14249.246     752.3877    9.0952344    9.0952344    9.0952344    41.633508 
  584900    284.51208   -11465.266            0   -10618.037   -20506.368    754.70898    9.1045784    9.1045784    9.1045784    55.067515 
  585000    296.08855   -11493.181            0    -10611.48   -26352.676    755.31429    9.1070118    9.1070118    9.1070118    33.800787 
  585100    289.91268   -11467.279            0   -10603.968   -22244.143    754.25911     9.102769     9.102769     9.102769    50.915239 
  585200    297.72531   -11483.585            0    -10597.01   -15133.854    751.98804    9.0936237    9.0936237    9.0936237     58.50798 
  585300    300.81062   -11485.281            0   -10589.519    710.78864    749.16055     9.082212     9.082212     9.082212    50.121392 
  585400    299.57273   -11474.157            0    -10582.08    12532.731    746.66569    9.0721189    9.0721189    9.0721189    58.818645 
  585500    299.96165    -11466.97            0   -10573.735    12435.124     745.2771    9.0664915    9.0664915    9.0664915     54.51298 
  585600    302.47817   -11467.601            0   -10566.872    21001.505    745.03948    9.0655278    9.0655278    9.0655278    46.194605 
  585700     307.0817    -11476.01            0   -10561.573    21942.519    746.09232    9.0697961    9.0697961    9.0697961    44.446339 
  585800    296.23731   -11438.822            0   -10556.678    11328.627     748.0759    9.0778267    9.0778267    9.0778267    46.991733 
  585900    303.45424   -11455.317            0   -10551.682   -298.93662     750.5842    9.0879614    9.0879614    9.0879614     46.51813 
  586000    303.38671   -11451.404            0    -10547.97   -2918.9558    752.88875    9.0972529    9.0972529    9.0972529    51.135171 
Loop time of 2135.25 on 16 procs for 100000 steps with 1000 atoms

Performance: 4.046 ns/day, 5.931 hours/ns, 46.833 timesteps/s
94.3% CPU use with 16 MPI tasks x no OpenMP threads

MPI task timing breakdown:
Section |  min time  |  avg time  |  max time  |%varavg| %total
---------------------------------------------------------------
Pair    | 170.29     | 175.08     | 178.55     |  21.3 |  8.20
Neigh   | 70.98      | 72.887     | 76.238     |  15.3 |  3.41
Comm    | 69.597     | 74.561     | 80.338     |  40.5 |  3.49
Output  | 1230.4     | 1266.8     | 1805.8     | 391.0 | 59.33
Modify  | 5.9908     | 545.04     | 581.39     | 596.2 | 25.53
Other   |            | 0.8938     |            |       |  0.04

Nlocal:    62.5 ave 69 max 58 min
Histogram: 3 2 3 1 0 2 3 0 1 1
Nghost:    1917.81 ave 1932 max 1898 min
Histogram: 1 1 2 0 1 2 3 1 2 3
Neighs:    0 ave 0 max 0 min
Histogram: 16 0 0 0 0 0 0 0 0 0
FullNghs:  19535.4 ave 21727 max 18072 min
Histogram: 2 3 3 0 1 4 1 0 1 1

Total # of neighbors = 312566
Ave neighs/atom = 312.566
Neighbor list builds = 100000
Dangerous builds not checked
Total wall time: 3:28:35
