LAMMPS (16 Mar 2018)
Reading data file ...
  orthogonal box = (-4.71497 -4.71497 -4.71497) to (4.71497 4.71497 4.71497)
  2 by 2 by 4 MPI processor grid
  reading atoms ...
  1000 atoms
Reading potential file /home/fs01/ajm529/lammps-16Mar18/potentials/sw_potentials/AG/eps2.23.sw with DATE: 2008-01-29
Neighbor list info ...
  update every 1 steps, delay 0 steps, check no
  max neighbors/atom: 2000, page size: 100000
  master list distance cutoff = 3.836
  ghost atom cutoff = 3.836
  binsize = 1.918, bins = 5 5 5
  1 neighbor lists, perpetual/occasional/extra = 1 0 0
  (1) pair sw, perpetual
      attributes: full, newton on
      pair build: full/bin/atomonly
      stencil: full/bin/3d
      bin: standard
Setting up Verlet run ...
  Unit style    : real
  Current step  : 0
  Time step     : 1
Per MPI rank memory allocation (min/avg/max) = 3.518 | 3.519 | 3.52 Mbytes
Step Temp E_pair E_mol TotEng Press Volume Lx Ly Lz S/CPU 
       0          300   -10105.032            0   -9211.6836   -35010.867    838.54523    9.4299379    9.4299379    9.4299379            0 
     100     340.1087    -10231.86            0   -9219.0745   -35897.741    836.52207    9.4223479    9.4223479    9.4223479    35.909148 
     200    321.10056   -10188.552            0   -9232.3693   -27371.206     830.9206    9.4012696    9.4012696    9.4012696    42.746138 
     300    331.88799   -10242.937            0   -9254.6317   -23813.291    822.66094    9.3700152    9.3700152    9.3700152    40.460583 
     400    328.46892   -10256.578            0   -9278.4537   -24574.573    812.80051    9.3324282    9.3324282    9.3324282    39.200384 
     500     333.6759    -10291.38            0   -9297.7499   -8005.3949    802.79355    9.2939705    9.2939705    9.2939705    42.037701 
     600    340.65508   -10327.497            0   -9313.0839   -426.60508    794.25155    9.2608893    9.2608893    9.2608893     46.53048 
     700     341.0556    -10346.06            0    -9330.455    14425.054    787.73041    9.2354743    9.2354743    9.2354743    41.463853 
     800    333.69149   -10342.613            0   -9348.9368    13913.377    782.92269    9.2166471    9.2166471    9.2166471    39.430357 
     900    330.96546   -10353.957            0   -9368.3983    23063.567    779.68275    9.2039159    9.2039159    9.2039159    44.540116 
    1000     322.6386   -10348.848            0   -9388.0855        19150     777.9078    9.1969264    9.1969264    9.1969264    56.123056 
Loop time of 23.6495 on 16 procs for 1000 steps with 1000 atoms

Performance: 3.653 ns/day, 6.569 hours/ns, 42.284 timesteps/s
94.5% CPU use with 16 MPI tasks x no OpenMP threads

MPI task timing breakdown:
Section |  min time  |  avg time  |  max time  |%varavg| %total
---------------------------------------------------------------
Pair    | 1.6016     | 1.7122     | 2.2967     |  13.0 |  7.24
Neigh   | 0.58762    | 0.62006    | 0.79031    |   6.5 |  2.62
Comm    | 0.33687    | 1.0899     | 1.2359     |  21.1 |  4.61
Output  | 13.921     | 14.318     | 20.193     |  40.1 | 60.54
Modify  | 0.024467   | 5.9027     | 6.3        |  62.5 | 24.96
Other   |            | 0.007158   |            |       |  0.03

Nlocal:    62.5 ave 66 max 57 min
Histogram: 1 0 1 1 3 1 3 2 2 2
Nghost:    1869.44 ave 1882 max 1853 min
Histogram: 2 0 1 1 2 2 3 2 1 2
Neighs:    0 ave 0 max 0 min
Histogram: 16 0 0 0 0 0 0 0 0 0
FullNghs:  18961.9 ave 20268 max 17252 min
Histogram: 1 1 1 1 2 2 2 3 1 2

Total # of neighbors = 303390
Ave neighs/atom = 303.39
Neighbor list builds = 1000
Dangerous builds not checked
Setting up Verlet run ...
  Unit style    : real
  Current step  : 1000
  Time step     : 1
Per MPI rank memory allocation (min/avg/max) = 3.768 | 4.427 | 4.579 Mbytes
Step Temp E_pair E_mol TotEng Press Volume Lx Ly Lz S/CPU 
    1000     322.6386   -10348.848            0   -9388.0855        19150     777.9078    9.1969264    9.1969264    9.1969264            0 
    1100    324.29979   -10376.563            0   -9410.8539    29182.653     777.9295    9.1970119    9.1970119    9.1970119    53.381858 
    1200    319.12998   -10381.882            0   -9431.5673    2484.7456     779.2334    9.2021474    9.2021474    9.2021474    42.706836 
    1300    324.22391   -10417.103            0   -9451.6194   -6874.7908    780.72807    9.2080273    9.2080273    9.2080273    44.106508 
    1400    309.22048   -10391.586            0   -9470.7802   -5827.1655    782.01196     9.213072     9.213072     9.213072    36.074421 
    1500    306.41964   -10402.049            0   -9489.5834   -224.37635    783.27204    9.2180178    9.2180178    9.2180178    47.661671 
    1600    313.86732   -10442.281            0   -9507.6382    4745.5713    785.02856    9.2249032    9.2249032    9.2249032    49.129052 
    1700    306.53835   -10436.801            0   -9523.9821   -14812.101     786.8568    9.2320589    9.2320589    9.2320589    35.940568 
    1800     303.6345   -10444.183            0   -9540.0114   -1216.4694    788.28214      9.23763      9.23763      9.23763    50.030727 
    1900     308.7004   -10474.317            0   -9555.0596   -10457.362    789.10731    9.2408522    9.2408522    9.2408522    37.008362 
    2000    302.32072   -10469.772            0   -9569.5122   -12651.363    788.83262    9.2397798    9.2397798    9.2397798    57.684714 
Loop time of 22.6045 on 16 procs for 1000 steps with 1000 atoms

Performance: 3.822 ns/day, 6.279 hours/ns, 44.239 timesteps/s
94.6% CPU use with 16 MPI tasks x no OpenMP threads

MPI task timing breakdown:
Section |  min time  |  avg time  |  max time  |%varavg| %total
---------------------------------------------------------------
Pair    | 1.6988     | 1.8228     | 2.582      |  15.9 |  8.06
Neigh   | 0.59673    | 0.63146    | 0.83367    |   7.3 |  2.79
Comm    | 0.34297    | 1.3037     | 1.4568     |  23.9 |  5.77
Output  | 12.463     | 12.864     | 18.813     |  42.8 | 56.91
Modify  | 0.024331   | 5.9758     | 6.377      |  62.9 | 26.44
Other   |            | 0.007239   |            |       |  0.03

Nlocal:    62.5 ave 70 max 59 min
Histogram: 5 1 1 5 1 1 1 0 0 1
Nghost:    1857.38 ave 1886 max 1829 min
Histogram: 2 0 3 1 2 1 3 1 2 1
Neighs:    0 ave 0 max 0 min
Histogram: 16 0 0 0 0 0 0 0 0 0
FullNghs:  18719.6 ave 21206 max 17392 min
Histogram: 3 2 1 2 4 2 1 0 0 1

Total # of neighbors = 299514
Ave neighs/atom = 299.514
Neighbor list builds = 1000
Dangerous builds not checked
Setting up Verlet run ...
  Unit style    : real
  Current step  : 2000
  Time step     : 1
Per MPI rank memory allocation (min/avg/max) = 3.768 | 4.477 | 4.579 Mbytes
Step Temp E_pair E_mol TotEng Press Volume Lx Ly Lz S/CPU 
    2000    302.32072   -10469.772            0   -9569.5122   -12651.363    788.83262    9.2397798    9.2397798    9.2397798            0 
    2100    310.83033   -10509.092            0   -9583.4925   -9964.9733    787.70718    9.2353835    9.2353835    9.2353835    49.231704 
    2200    295.28994   -10473.723            0      -9594.4   -7779.6884    785.94331    9.2284849    9.2284849    9.2284849    41.778695 
    2300    296.41883   -10487.455            0   -9604.7701    11682.277    783.80522    9.2201089    9.2201089    9.2201089    49.507947 
    2400    295.48455    -10492.45            0   -9612.5476    9156.9966    781.88634    9.2125787    9.2125787    9.2125787    49.985564 
    2500    297.88497   -10510.088            0   -9623.0378    198.14166    780.25338    9.2061607    9.2061607    9.2061607    49.805276 
    2600    292.94498   -10502.158            0    -9629.818    9467.9526    778.74642    9.2002301    9.2002301    9.2002301    47.090074 
    2700    300.56348    -10530.92            0   -9635.8933    4653.9046    777.56386    9.1955707    9.1955707    9.1955707    37.300751 
    2800    290.67361   -10506.035            0   -9640.4588    11741.537    777.41646    9.1949896    9.1949896    9.1949896    45.515124 
    2900    294.04285   -10522.195            0   -9646.5859     13244.62    778.71316    9.2000991    9.2000991    9.2000991    58.169991 
    3000    296.86424   -10535.447            0   -9651.4364    27519.928    780.90258    9.2087133    9.2087133    9.2087133    46.350883 
Loop time of 21.3312 on 16 procs for 1000 steps with 1000 atoms

Performance: 4.050 ns/day, 5.925 hours/ns, 46.880 timesteps/s
94.6% CPU use with 16 MPI tasks x no OpenMP threads

MPI task timing breakdown:
Section |  min time  |  avg time  |  max time  |%varavg| %total
---------------------------------------------------------------
Pair    | 1.6772     | 1.8213     | 2.4675     |  13.3 |  8.54
Neigh   | 0.58757    | 0.63137    | 0.81165    |   6.5 |  2.96
Comm    | 0.33115    | 1.1576     | 1.3446     |  21.5 |  5.43
Output  | 12.057     | 12.412     | 17.688     |  38.7 | 58.19
Modify  | 0.024746   | 5.3015     | 5.6575     |  59.2 | 24.85
Other   |            | 0.007218   |            |       |  0.03

Nlocal:    62.5 ave 68 max 56 min
Histogram: 1 0 2 2 2 3 1 1 1 3
Nghost:    1862.56 ave 1882 max 1845 min
Histogram: 3 1 2 1 1 1 1 4 0 2
Neighs:    0 ave 0 max 0 min
Histogram: 16 0 0 0 0 0 0 0 0 0
FullNghs:  18930.4 ave 20518 max 16943 min
Histogram: 1 1 1 2 3 2 1 1 0 4

Total # of neighbors = 302886
Ave neighs/atom = 302.886
Neighbor list builds = 1000
Dangerous builds not checked
Setting up Verlet run ...
  Unit style    : real
  Current step  : 3000
  Time step     : 1
Per MPI rank memory allocation (min/avg/max) = 3.768 | 4.528 | 4.579 Mbytes
Step Temp E_pair E_mol TotEng Press Volume Lx Ly Lz S/CPU 
    3000    296.86424   -10535.447            0   -9651.4364    27519.928    780.90258    9.2087133    9.2087133    9.2087133            0 
    3100    289.15736   -10515.277            0   -9654.2154    10511.151    784.16512    9.2215199    9.2215199    9.2215199    43.674544 
    3200    281.94274   -10494.784            0   -9655.2069    4309.8633    787.80918    9.2357821    9.2357821    9.2357821    57.667126 
    3300    291.19639   -10521.276            0   -9654.1431   -6066.1061    791.29077    9.2493674    9.2493674    9.2493674    50.776477 
    3400    301.66041   -10548.347            0   -9650.0536     1445.175    794.07944    9.2602203    9.2602203    9.2602203    47.940437 
    3500    286.56249   -10496.286            0   -9642.9519   -17345.969    796.16636    9.2683254    9.2683254    9.2683254    38.933662 
    3600    285.42567   -10482.622            0   -9632.6728   -6976.9706     797.1811    9.2722614    9.2722614    9.2722614    40.526977 
    3700    288.32553   -10479.773            0   -9621.1888   -22107.674    797.02549     9.271658     9.271658     9.271658    59.464587 
    3800    305.47824   -10520.165            0   -9610.5026   -19724.647    795.33837    9.2651114    9.2651114    9.2651114    50.506242 
    3900    290.94213   -10464.106            0   -9597.7303   -7939.7896    792.52535    9.2541753    9.2541753    9.2541753    43.836685 
    4000    307.02604   -10501.685            0   -9587.4139    12267.491    789.38131    9.2419216    9.2419216    9.2419216    52.734463 
Loop time of 20.9542 on 16 procs for 1000 steps with 1000 atoms

Performance: 4.123 ns/day, 5.821 hours/ns, 47.723 timesteps/s
94.6% CPU use with 16 MPI tasks x no OpenMP threads

MPI task timing breakdown:
Section |  min time  |  avg time  |  max time  |%varavg| %total
---------------------------------------------------------------
Pair    | 1.657      | 1.7778     | 2.4475     |  13.8 |  8.48
Neigh   | 0.59624    | 0.63064    | 0.8296     |   6.9 |  3.01
Comm    | 0.35704    | 1.2254     | 1.381      |  21.6 |  5.85
Output  | 11.505     | 11.87      | 17.287     |  40.6 | 56.65
Modify  | 0.024805   | 5.4429     | 5.8091     |  60.0 | 25.98
Other   |            | 0.007207   |            |       |  0.03

Nlocal:    62.5 ave 68 max 58 min
Histogram: 2 2 0 1 4 2 1 0 2 2
Nghost:    1853.44 ave 1882 max 1826 min
Histogram: 2 0 1 5 2 0 2 1 1 2
Neighs:    0 ave 0 max 0 min
Histogram: 16 0 0 0 0 0 0 0 0 0
FullNghs:  18706.1 ave 20438 max 17127 min
Histogram: 3 1 0 2 4 1 1 2 0 2

Total # of neighbors = 299298
Ave neighs/atom = 299.298
Neighbor list builds = 1000
Dangerous builds not checked
Setting up Verlet run ...
  Unit style    : real
  Current step  : 4000
  Time step     : 1
Per MPI rank memory allocation (min/avg/max) = 4.577 | 4.578 | 4.579 Mbytes
Step Temp E_pair E_mol TotEng Press Volume Lx Ly Lz S/CPU 
    4000    307.02604   -10501.685            0   -9587.4139    12267.491    789.38131    9.2419216    9.2419216    9.2419216            0 
    4100    310.88431   -10504.215            0   -9578.4545   -7854.7775     786.4279    9.2303812    9.2303812    9.2303812    43.647966 
    4200    305.56348   -10480.019            0   -9570.1035     7222.902    783.51785    9.2189819    9.2189819    9.2189819    45.262848 
    4300     302.8771   -10465.118            0   -9563.2015    22808.076    781.35075    9.2104746    9.2104746    9.2104746    53.363513 
    4400     304.5816   -10466.735            0    -9559.743    17043.362    780.18755    9.2059018    9.2059018    9.2059018    45.498103 
    4500    300.49522   -10449.987            0   -9555.1631     16872.74    779.74849    9.2041746    9.2041746    9.2041746    52.327969 
    4600    310.80218   -10478.969            0    -9553.453     1548.663     779.9438     9.204943     9.204943     9.204943    32.685379 
    4700    298.37761   -10440.564            0   -9552.0469    19044.413    780.52134    9.2072145    9.2072145    9.2072145    42.916312 
    4800    301.63268   -10449.447            0   -9551.2368   -2217.5277     781.7871    9.2121889    9.2121889    9.2121889    50.331627 
    4900    296.70453     -10434.8            0   -9551.2645   -5579.8524    783.00487    9.2169696    9.2169696    9.2169696    52.819843 
    5000    309.13742   -10472.004            0    -9551.446   -7551.9286    784.15567    9.2214828    9.2214828    9.2214828    56.662136 
Loop time of 21.5177 on 16 procs for 1000 steps with 1000 atoms

Performance: 4.015 ns/day, 5.977 hours/ns, 46.473 timesteps/s
94.6% CPU use with 16 MPI tasks x no OpenMP threads

MPI task timing breakdown:
Section |  min time  |  avg time  |  max time  |%varavg| %total
---------------------------------------------------------------
Pair    | 1.6673     | 1.8361     | 2.5518     |  15.6 |  8.53
Neigh   | 0.58677    | 0.63695    | 0.83714    |   8.1 |  2.96
Comm    | 0.35183    | 1.2655     | 1.4772     |  24.3 |  5.88
Output  | 11.622     | 12.009     | 17.744     |  42.7 | 55.81
Modify  | 0.024269   | 5.7632     | 6.1511     |  61.7 | 26.78
Other   |            | 0.007236   |            |       |  0.03

Nlocal:    62.5 ave 67 max 58 min
Histogram: 3 1 0 2 1 2 1 4 1 1
Nghost:    1865.12 ave 1881 max 1852 min
Histogram: 2 1 3 2 1 2 1 2 1 1
Neighs:    0 ave 0 max 0 min
Histogram: 16 0 0 0 0 0 0 0 0 0
FullNghs:  18808 ave 20228 max 17309 min
Histogram: 3 0 1 2 1 1 3 2 2 1

Total # of neighbors = 300928
Ave neighs/atom = 300.928
Neighbor list builds = 1000
Dangerous builds not checked
Setting up Verlet run ...
  Unit style    : real
  Current step  : 5000
  Time step     : 1
Per MPI rank memory allocation (min/avg/max) = 4.577 | 4.578 | 4.579 Mbytes
Step Temp E_pair E_mol TotEng Press Volume Lx Ly Lz S/CPU 
    5000    309.13742   -10472.004            0    -9551.446   -7551.9286    784.15567    9.2214828    9.2214828    9.2214828            0 
    5100     297.8146   -10439.214            0   -9552.3729    5361.9482    784.99173     9.224759     9.224759     9.224759    46.737933 
    5200    313.89566   -10490.608            0   -9555.8807   -1739.0401    785.61548    9.2272016    9.2272016    9.2272016    45.824839 
    5300    297.27531   -10444.687            0   -9559.4521    6179.6888     786.2387    9.2296409    9.2296409    9.2296409    51.278589 
    5400    304.60489   -10472.485            0   -9565.4238    3981.5082    787.06286    9.2328647    9.2328647    9.2328647    45.670625 
    5500    297.28207   -10454.555            0   -9569.2996   -4691.8616    787.55488    9.2347883    9.2347883    9.2347883    60.009233 
    5600    299.91191   -10468.229            0   -9575.1427   -3806.3601     787.5408    9.2347332    9.2347332    9.2347332    47.434615 
    5700    302.05347   -10483.023            0   -9583.5598   -3214.8933    787.05008    9.2328148    9.2328148    9.2328148    39.341114 
    5800    304.41347   -10500.167            0   -9593.6758    5776.0469    786.39118    9.2302375    9.2302375    9.2302375    40.337208 
    5900    304.18481   -10510.659            0   -9604.8482    1253.5075    785.67848    9.2274483    9.2274483    9.2274483    47.266775 
    6000    291.41688   -10482.849            0   -9615.0594    -4192.023    785.04037    9.2249495    9.2249495    9.2249495     46.99133 
Loop time of 21.5008 on 16 procs for 1000 steps with 1000 atoms

Performance: 4.018 ns/day, 5.972 hours/ns, 46.510 timesteps/s
94.6% CPU use with 16 MPI tasks x no OpenMP threads

MPI task timing breakdown:
Section |  min time  |  avg time  |  max time  |%varavg| %total
---------------------------------------------------------------
Pair    | 1.6706     | 1.7948     | 2.4567     |  14.2 |  8.35
Neigh   | 0.59048    | 0.62857    | 0.81461    |   7.0 |  2.92
Comm    | 0.38943    | 1.2371     | 1.392      |  22.0 |  5.75
Output  | 12.259     | 12.609     | 17.807     |  37.8 | 58.65
Modify  | 0.024827   | 5.2238     | 5.5753     |  58.7 | 24.30
Other   |            | 0.007192   |            |       |  0.03

Nlocal:    62.5 ave 66 max 57 min
Histogram: 1 0 2 2 0 0 6 0 3 2
Nghost:    1864.62 ave 1881 max 1847 min
Histogram: 2 1 2 1 1 3 0 2 2 2
Neighs:    0 ave 0 max 0 min
Histogram: 16 0 0 0 0 0 0 0 0 0
FullNghs:  18786.8 ave 19845 max 16983 min
Histogram: 1 0 2 2 0 0 2 4 0 5

Total # of neighbors = 300588
Ave neighs/atom = 300.588
Neighbor list builds = 1000
Dangerous builds not checked
Setting up Verlet run ...
  Unit style    : real
  Current step  : 6000
  Time step     : 1
Per MPI rank memory allocation (min/avg/max) = 4.577 | 4.578 | 4.579 Mbytes
Step Temp E_pair E_mol TotEng Press Volume Lx Ly Lz S/CPU 
    6000    291.41688   -10482.849            0   -9615.0594    -4192.023    785.04037    9.2249495    9.2249495    9.2249495            0 
    6100    293.15925   -10496.934            0   -9623.9556   -10099.528    784.01834    9.2209445    9.2209445    9.2209445    56.243479 
    6200    306.37288   -10544.782            0   -9632.4561     9866.679    782.36937    9.2144754    9.2144754    9.2144754    50.533664 
    6300    291.94927   -10508.181            0   -9638.8057   -3883.5364    780.78902    9.2082669    9.2082669    9.2082669    39.651845 
    6400    300.02927    -10537.68            0   -9644.2438   -5890.9039    778.85449    9.2006556    9.2006556    9.2006556     51.63845 
    6500    290.54049   -10510.958            0   -9645.7777    6784.6956    776.89116    9.1929182    9.1929182    9.1929182    43.804422 
    6600    300.30438   -10542.064            0   -9647.8092    5475.9312    775.36494    9.1868943    9.1868943    9.1868943    56.583844 
    6700    303.28164   -10550.378            0   -9647.2575    7942.0948     774.1038    9.1819108    9.1819108    9.1819108    59.589562 
    6800     290.3433   -10510.157            0   -9645.5638    18409.163    773.29667    9.1787184    9.1787184    9.1787184    31.763256 
    6900    292.98698   -10514.653            0   -9642.1882    16971.142    773.17735    9.1782463    9.1782463    9.1782463    47.181205 
    7000     293.9533   -10513.243            0   -9637.8998    20806.433    773.66616    9.1801801    9.1801801    9.1801801     48.89058 
Loop time of 21.2569 on 16 procs for 1000 steps with 1000 atoms

Performance: 4.065 ns/day, 5.905 hours/ns, 47.044 timesteps/s
94.5% CPU use with 16 MPI tasks x no OpenMP threads

MPI task timing breakdown:
Section |  min time  |  avg time  |  max time  |%varavg| %total
---------------------------------------------------------------
Pair    | 1.7191     | 1.8335     | 2.4221     |  11.8 |  8.63
Neigh   | 0.59745    | 0.63011    | 0.79813    |   6.1 |  2.96
Comm    | 0.3837     | 1.1403     | 1.2866     |  19.3 |  5.36
Output  | 11.782     | 12.151     | 17.62      |  40.5 | 57.16
Modify  | 0.024493   | 5.4948     | 5.8639     |  60.3 | 25.85
Other   |            | 0.007243   |            |       |  0.03

Nlocal:    62.5 ave 67 max 54 min
Histogram: 1 0 1 0 3 1 2 3 1 4
Nghost:    1859.25 ave 1871 max 1852 min
Histogram: 3 1 1 3 3 2 2 0 0 1
Neighs:    0 ave 0 max 0 min
Histogram: 16 0 0 0 0 0 0 0 0 0
FullNghs:  19085 ave 20283 max 16531 min
Histogram: 1 0 1 0 3 1 0 3 3 4

Total # of neighbors = 305360
Ave neighs/atom = 305.36
Neighbor list builds = 1000
Dangerous builds not checked
Setting up Verlet run ...
  Unit style    : real
  Current step  : 7000
  Time step     : 1
Per MPI rank memory allocation (min/avg/max) = 4.577 | 4.578 | 4.579 Mbytes
Step Temp E_pair E_mol TotEng Press Volume Lx Ly Lz S/CPU 
    7000     293.9533   -10513.243            0   -9637.8998    20806.433    773.66616    9.1801801    9.1801801    9.1801801            0 
    7100    304.17856   -10537.432            0     -9631.64    8835.2523    774.96186    9.1853021    9.1853021    9.1853021    40.901911 
    7200    292.11033   -10495.434            0   -9625.5796    9546.5666    777.19421    9.1941133    9.1941133    9.1941133    61.260908 
    7300    295.62724   -10498.242            0   -9617.9147     7696.931     780.0536    9.2053749    9.2053749    9.2053749     57.13249 
    7400    294.05429    -10484.93            0    -9609.287    13844.363    783.19475    9.2177146    9.2177146    9.2177146    42.960552 
    7500    298.69467   -10489.803            0   -9600.3409   -7743.7834    786.37882    9.2301892    9.2301892    9.2301892    50.093392 
    7600    306.82308    -10506.57            0   -9592.9028    -7224.283    789.05503    9.2406481    9.2406481    9.2406481    55.660129 
    7700    292.82622   -10458.062            0   -9586.0758   -13480.093    790.88888    9.2478013    9.2478013    9.2478013    51.824408 
    7800    300.75278   -10478.459            0   -9582.8689   -28532.122    791.76928    9.2512315    9.2512315    9.2512315    47.013976 
    7900    311.54747   -10509.595            0   -9581.8598   -23725.439      791.082    9.2485539    9.2485539    9.2485539    50.337127 
    8000    306.31678   -10493.187            0   -9581.0283   -23912.938    789.00816    9.2404651    9.2404651    9.2404651    36.184994 
Loop time of 20.755 on 16 procs for 1000 steps with 1000 atoms

Performance: 4.163 ns/day, 5.765 hours/ns, 48.181 timesteps/s
94.6% CPU use with 16 MPI tasks x no OpenMP threads

MPI task timing breakdown:
Section |  min time  |  avg time  |  max time  |%varavg| %total
---------------------------------------------------------------
Pair    | 1.6635     | 1.7887     | 2.3218     |  11.0 |  8.62
Neigh   | 0.5935     | 0.6248     | 0.77789    |   5.4 |  3.01
Comm    | 0.3581     | 1.0427     | 1.1994     |  18.5 |  5.02
Output  | 11.854     | 12.196     | 17.265     |  37.5 | 58.76
Modify  | 0.024214   | 5.0957     | 5.4381     |  58.0 | 24.55
Other   |            | 0.007205   |            |       |  0.03

Nlocal:    62.5 ave 66 max 57 min
Histogram: 1 1 0 1 1 4 1 3 3 1
Nghost:    1848.31 ave 1864 max 1830 min
Histogram: 1 1 0 2 2 3 2 4 0 1
Neighs:    0 ave 0 max 0 min
Histogram: 16 0 0 0 0 0 0 0 0 0
FullNghs:  18715.8 ave 19960 max 16988 min
Histogram: 1 1 1 0 1 4 2 4 0 2

Total # of neighbors = 299452
Ave neighs/atom = 299.452
Neighbor list builds = 1000
Dangerous builds not checked
Setting up Verlet run ...
  Unit style    : real
  Current step  : 8000
  Time step     : 1
Per MPI rank memory allocation (min/avg/max) = 4.577 | 4.578 | 4.579 Mbytes
Step Temp E_pair E_mol TotEng Press Volume Lx Ly Lz S/CPU 
    8000    306.31678   -10493.187            0   -9581.0283   -23912.938    789.00816    9.2404651    9.2404651    9.2404651            0 
    8100    307.96613   -10498.631            0   -9581.5603    2739.2673    786.10894    9.2291331    9.2291331    9.2291331    41.665739 
    8200    308.17227   -10500.797            0   -9583.1131    12907.493    783.50196    9.2189197    9.2189197    9.2189197    47.591881 
    8300    299.59708   -10475.777            0    -9583.628    5958.6935    781.45867    9.2108987    9.2108987    9.2108987    58.102227 
    8400    311.45059   -10514.255            0   -9586.8084    5847.8847    779.76122    9.2042247    9.2042247    9.2042247    42.668313 
    8500    296.39827   -10472.169            0   -9589.5454    9908.4947     778.4409    9.1990268    9.1990268    9.1990268    41.556135 
    8600    303.18089   -10495.745            0   -9592.9242    9389.8632    777.96134    9.1971374    9.1971374    9.1971374    43.020404 
    8700    308.87798    -10518.19            0   -9598.4037    13051.546    778.37675    9.1987741    9.1987741    9.1987741    52.562953 
    8800     306.6824   -10515.861            0   -9602.6132    9329.3477    779.58651    9.2035372    9.2035372    9.2035372    48.859189 
    8900    304.87513   -10516.071            0   -9608.2044   -13513.697    781.13303    9.2096191    9.2096191    9.2096191    45.642801 
    9000    300.92415   -10507.799            0   -9611.6982    6798.0059    782.43442    9.2147307    9.2147307    9.2147307    49.274093 
Loop time of 21.4666 on 16 procs for 1000 steps with 1000 atoms

Performance: 4.025 ns/day, 5.963 hours/ns, 46.584 timesteps/s
94.5% CPU use with 16 MPI tasks x no OpenMP threads

MPI task timing breakdown:
Section |  min time  |  avg time  |  max time  |%varavg| %total
---------------------------------------------------------------
Pair    | 1.6769     | 1.7989     | 2.2774     |   9.8 |  8.38
Neigh   | 0.59962    | 0.62477    | 0.76308    |   4.8 |  2.91
Comm    | 0.40039    | 1.0155     | 1.1401     |  16.7 |  4.73
Output  | 12.179     | 12.546     | 17.992     |  39.7 | 58.45
Modify  | 0.024909   | 5.4736     | 5.8416     |  60.1 | 25.50
Other   |            | 0.007394   |            |       |  0.03

Nlocal:    62.5 ave 66 max 56 min
Histogram: 1 0 0 2 0 2 2 2 2 5
Nghost:    1854.5 ave 1867 max 1832 min
Histogram: 1 0 1 0 1 4 3 1 1 4
Neighs:    0 ave 0 max 0 min
Histogram: 16 0 0 0 0 0 0 0 0 0
FullNghs:  18856.8 ave 19989 max 16929 min
Histogram: 1 0 2 0 0 4 1 3 3 2

Total # of neighbors = 301708
Ave neighs/atom = 301.708
Neighbor list builds = 1000
Dangerous builds not checked
Setting up Verlet run ...
  Unit style    : real
  Current step  : 9000
  Time step     : 1
Per MPI rank memory allocation (min/avg/max) = 4.577 | 4.579 | 4.58 Mbytes
Step Temp E_pair E_mol TotEng Press Volume Lx Ly Lz S/CPU 
    9000    300.92415   -10507.799            0   -9611.6982    6798.0059    782.43442    9.2147307    9.2147307    9.2147307            0 
    9100     295.2931   -10494.701            0   -9615.3682   -2628.9279    783.43813    9.2186693    9.2186693    9.2186693    54.055483 
    9200    294.28455   -10494.282            0    -9617.953   -1319.9864    783.99717    9.2208615    9.2208615    9.2208615    46.126256 
    9300    290.57665   -10486.974            0   -9621.6867    1789.1904    784.38595    9.2223854    9.2223854    9.2223854    69.098893 
    9400    298.87961   -10515.939            0    -9625.927    4672.9351    784.88354    9.2243351    9.2243351    9.2243351     50.68754 
    9500     298.8271   -10519.209            0   -9629.3533   -9806.4916    785.26848    9.2258429    9.2258429    9.2258429     45.47929 
    9600    300.32418   -10527.775            0   -9633.4611   -27488.175    785.42236    9.2264455    9.2264455    9.2264455    47.772041 
    9700    308.48212    -10556.46            0    -9637.853   -3756.7002     784.9506    9.2245978    9.2245978    9.2245978    65.526617 
    9800    290.48551    -10506.72            0   -9641.7039   -20986.791    784.04173    9.2210362    9.2210362    9.2210362    39.182039 
    9900    293.79495   -10522.787            0   -9647.9158      1158.36    782.46725    9.2148596    9.2148596    9.2148596     46.31994 
   10000    295.13675   -10531.393            0   -9652.5259   -2526.8626    780.64314    9.2076934    9.2076934    9.2076934    46.042046 
Loop time of 20.1392 on 16 procs for 1000 steps with 1000 atoms

Performance: 4.290 ns/day, 5.594 hours/ns, 49.654 timesteps/s
94.6% CPU use with 16 MPI tasks x no OpenMP threads

MPI task timing breakdown:
Section |  min time  |  avg time  |  max time  |%varavg| %total
---------------------------------------------------------------
Pair    | 1.6998     | 1.7858     | 2.2528     |   9.7 |  8.87
Neigh   | 0.59489    | 0.62437    | 0.76347    |   5.1 |  3.10
Comm    | 0.43535    | 1.0415     | 1.1574     |  16.5 |  5.17
Output  | 10.722     | 11.096     | 16.655     |  43.1 | 55.10
Modify  | 0.024273   | 5.5842     | 5.9591     |  60.7 | 27.73
Other   |            | 0.007193   |            |       |  0.04

Nlocal:    62.5 ave 67 max 58 min
Histogram: 2 2 2 0 2 1 3 0 1 3
Nghost:    1853.69 ave 1893 max 1826 min
Histogram: 2 5 1 0 0 3 2 1 1 1
Neighs:    0 ave 0 max 0 min
Histogram: 16 0 0 0 0 0 0 0 0 0
FullNghs:  18920.1 ave 20547 max 17391 min
Histogram: 3 1 2 0 1 3 2 0 2 2

Total # of neighbors = 302722
Ave neighs/atom = 302.722
Neighbor list builds = 1000
Dangerous builds not checked
Setting up Verlet run ...
  Unit style    : real
  Current step  : 10000
  Time step     : 1
Per MPI rank memory allocation (min/avg/max) = 4.577 | 4.579 | 4.58 Mbytes
Step Temp E_pair E_mol TotEng Press Volume Lx Ly Lz S/CPU 
   10000    295.13675   -10531.393            0   -9652.5259   -2526.8626    780.64314    9.2076934    9.2076934    9.2076934            0 
   10100    298.80203   -10547.531            0   -9657.7501    11929.026    779.03874    9.2013811    9.2013811    9.2013811    50.334247 
   10200     308.2624   -10581.608            0   -9663.6551    3973.4149    777.99496    9.1972698    9.1972698    9.1972698    52.636853 
   10300    287.93714   -10525.251            0   -9667.8235    1206.9402    777.23088    9.1942579    9.1942579    9.1942579    46.359593 
   10400    299.75542   -10565.872            0   -9673.2519     585.6205    776.75889    9.1923964    9.1923964    9.1923964    43.488084 
   10500    286.77972   -10530.443            0   -9676.4622    8268.6426    776.81034    9.1925993    9.1925993    9.1925993    39.026635 
   10600    300.26195   -10574.086            0   -9679.9568    6970.5851      777.202     9.194144     9.194144     9.194144    47.127033 
   10700     300.0653   -10575.343            0   -9681.7999   -13846.866    777.71239    9.1961562    9.1961562    9.1961562     62.56695 
   10800    291.38522   -10548.596            0   -9680.9006    4044.0817    778.27107    9.1983577    9.1983577    9.1983577    49.228485 
   10900    298.33136   -10567.092            0    -9678.712    2557.8935    779.03628    9.2013714    9.2013714    9.2013714    38.620673 
   11000    292.89962   -10544.076            0   -9671.8707    8062.7328    779.91176     9.204817     9.204817     9.204817    47.343714 
Loop time of 21.3585 on 16 procs for 1000 steps with 1000 atoms

Performance: 4.045 ns/day, 5.933 hours/ns, 46.820 timesteps/s
94.5% CPU use with 16 MPI tasks x no OpenMP threads

MPI task timing breakdown:
Section |  min time  |  avg time  |  max time  |%varavg| %total
---------------------------------------------------------------
Pair    | 1.7041     | 1.8005     | 2.2122     |   8.7 |  8.43
Neigh   | 0.59628    | 0.6236     | 0.74588    |   4.4 |  2.92
Comm    | 0.46541    | 0.99877    | 1.1217     |  15.0 |  4.68
Output  | 12.17      | 12.532     | 17.903     |  39.2 | 58.67
Modify  | 0.023842   | 5.3965     | 5.7597     |  59.7 | 25.27
Other   |            | 0.007183   |            |       |  0.03

Nlocal:    62.5 ave 66 max 60 min
Histogram: 1 6 0 1 0 4 2 0 0 2
Nghost:    1862.62 ave 1878 max 1843 min
Histogram: 3 0 0 2 2 0 2 2 3 2
Neighs:    0 ave 0 max 0 min
Histogram: 16 0 0 0 0 0 0 0 0 0
FullNghs:  18908.9 ave 20101 max 18186 min
Histogram: 1 6 1 0 4 0 2 0 0 2

Total # of neighbors = 302542
Ave neighs/atom = 302.542
Neighbor list builds = 1000
Dangerous builds not checked
Setting up Verlet run ...
  Unit style    : real
  Current step  : 11000
  Time step     : 1
Per MPI rank memory allocation (min/avg/max) = 4.577 | 4.579 | 4.58 Mbytes
Step Temp E_pair E_mol TotEng Press Volume Lx Ly Lz S/CPU 
   11000    292.89962   -10544.076            0   -9671.8707    8062.7328    779.91176     9.204817     9.204817     9.204817            0 
   11100    294.35101     -10539.4            0   -9662.8732   -719.02775    781.20715    9.2099104    9.2099104    9.2099104    50.472763 
   11200    289.34144   -10511.159            0   -9649.5494    -12429.46    782.58154    9.2153083    9.2153083    9.2153083    35.820471 
   11300    302.22536   -10535.658            0   -9635.6826    4384.4813    783.55989    9.2191468    9.2191468    9.2191468    50.800014 
   11400    296.00118   -10502.156            0   -9620.7147    1447.9944    784.41124    9.2224845    9.2224845    9.2224845    40.622474 
   11500    301.06126   -10506.701            0   -9610.1923   -5496.9802    785.28681    9.2259147    9.2259147    9.2259147    47.686253 
   11600    294.45215   -10477.702            0    -9600.874   -5524.1841    786.20095    9.2294932    9.2294932    9.2294932    47.119573 
   11700    300.65633   -10489.407            0   -9594.1038   -339.64484    786.69715    9.2314345    9.2314345    9.2314345    36.033561 
   11800    288.13998   -10444.285            0   -9586.2532   -10390.915    786.84289    9.2320045    9.2320045    9.2320045    39.430626 
   11900    300.55024   -10476.373            0   -9581.3857    2401.3892    786.30091    9.2298844    9.2298844    9.2298844    58.382075 
   12000    310.67175   -10502.583            0    -9577.456    7337.8704    785.73488    9.2276691    9.2276691    9.2276691    48.790721 
Loop time of 22.4962 on 16 procs for 1000 steps with 1000 atoms

Performance: 3.841 ns/day, 6.249 hours/ns, 44.452 timesteps/s
94.5% CPU use with 16 MPI tasks x no OpenMP threads

MPI task timing breakdown:
Section |  min time  |  avg time  |  max time  |%varavg| %total
---------------------------------------------------------------
Pair    | 1.6701     | 1.7722     | 2.2139     |   9.4 |  7.88
Neigh   | 0.59023    | 0.62123    | 0.74837    |   4.8 |  2.76
Comm    | 0.33097    | 0.89945    | 1.0318     |  17.0 |  4.00
Output  | 13.269     | 13.642     | 19.171     |  38.7 | 60.64
Modify  | 0.023482   | 5.554      | 5.9275     |  60.6 | 24.69
Other   |            | 0.007138   |            |       |  0.03

Nlocal:    62.5 ave 66 max 58 min
Histogram: 1 1 0 4 0 2 0 6 1 1
Nghost:    1852.25 ave 1864 max 1842 min
Histogram: 3 1 1 1 1 4 2 0 1 2
Neighs:    0 ave 0 max 0 min
Histogram: 16 0 0 0 0 0 0 0 0 0
FullNghs:  18775.2 ave 19777 max 17290 min
Histogram: 1 0 1 1 3 2 0 5 2 1

Total # of neighbors = 300404
Ave neighs/atom = 300.404
Neighbor list builds = 1000
Dangerous builds not checked
Setting up Verlet run ...
  Unit style    : real
  Current step  : 12000
  Time step     : 1
Per MPI rank memory allocation (min/avg/max) = 4.577 | 4.579 | 4.58 Mbytes
Step Temp E_pair E_mol TotEng Press Volume Lx Ly Lz S/CPU 
   12000    310.67175   -10502.583            0    -9577.456    7337.8704    785.73488    9.2276691    9.2276691    9.2276691            0 
   12100      305.492   -10483.388            0   -9573.6849    7778.5454    785.65036    9.2273382    9.2273382    9.2273382     58.04553 
   12200    310.86087   -10498.135            0   -9572.4446    3149.2601    785.91472     9.228373     9.228373     9.228373    50.287752 
   12300    302.76566   -10471.321            0   -9569.7364   -7598.7617    786.12846    9.2292095    9.2292095    9.2292095    43.776176 
   12400    314.62257   -10505.557            0   -9568.6642   -18251.088    786.06825    9.2289739    9.2289739    9.2289739    44.846497 
   12500    298.83399   -10457.935            0   -9568.0581   -3983.9414    785.54143    9.2269117    9.2269117    9.2269117    34.760811 
   12600    307.72227   -10485.181            0    -9568.837   -185.45394    784.75318    9.2238245    9.2238245    9.2238245    53.466993 
   12700    311.96837   -10499.818            0   -9570.8295   -4444.9613    783.67379    9.2195935    9.2195935    9.2195935    52.965291 
   12800    313.85874    -10509.36            0   -9574.7422     3998.833    782.53073    9.2151088    9.2151088    9.2151088    37.705228 
   12900    307.73638   -10497.532            0    -9581.146    6531.3416    781.84315     9.212409     9.212409     9.212409    59.467273 
   13000    300.03974   -10484.115            0   -9590.6474    9197.6239    781.88826    9.2125862    9.2125862    9.2125862    45.692317 
Loop time of 21.383 on 16 procs for 1000 steps with 1000 atoms

Performance: 4.041 ns/day, 5.940 hours/ns, 46.766 timesteps/s
94.6% CPU use with 16 MPI tasks x no OpenMP threads

MPI task timing breakdown:
Section |  min time  |  avg time  |  max time  |%varavg| %total
---------------------------------------------------------------
Pair    | 1.6774     | 1.801      | 2.3028     |  11.4 |  8.42
Neigh   | 0.59337    | 0.62869    | 0.78557    |   5.8 |  2.94
Comm    | 0.47       | 1.129      | 1.2859     |  18.6 |  5.28
Output  | 11.92      | 12.29      | 17.791     |  40.5 | 57.48
Modify  | 0.025162   | 5.5269     | 5.8983     |  60.4 | 25.85
Other   |            | 0.007219   |            |       |  0.03

Nlocal:    62.5 ave 68 max 56 min
Histogram: 2 0 0 1 1 7 1 2 0 2
Nghost:    1854.94 ave 1880 max 1832 min
Histogram: 3 0 2 2 0 4 1 1 2 1
Neighs:    0 ave 0 max 0 min
Histogram: 16 0 0 0 0 0 0 0 0 0
FullNghs:  18872.6 ave 20709 max 16739 min
Histogram: 2 0 0 2 2 4 3 1 0 2

Total # of neighbors = 301962
Ave neighs/atom = 301.962
Neighbor list builds = 1000
Dangerous builds not checked
Setting up Verlet run ...
  Unit style    : real
  Current step  : 13000
  Time step     : 1
Per MPI rank memory allocation (min/avg/max) = 4.577 | 4.579 | 4.58 Mbytes
Step Temp E_pair E_mol TotEng Press Volume Lx Ly Lz S/CPU 
   13000    300.03974   -10484.115            0   -9590.6474    9197.6239    781.88826    9.2125862    9.2125862    9.2125862            0 
   13100    303.07779   -10505.316            0   -9602.8023    17675.244     782.5647    9.2152422    9.2152422    9.2152422    32.460876 
   13200    299.28811   -10506.534            0   -9615.3048    15875.307    783.91736    9.2205486    9.2205486    9.2205486    45.121802 
   13300    301.75539   -10525.628            0   -9627.0521   -3176.7149    785.79671    9.2279111    9.2279111    9.2279111    36.653898 
   13400    293.74812   -10510.678            0   -9635.9461   -1488.3084    787.56325     9.234821     9.234821     9.234821    39.996997 
   13500    306.36359   -10556.299            0   -9644.0004   -14222.542    788.84046    9.2398104    9.2398104    9.2398104     36.77248 
   13600    302.49217   -10548.562            0   -9647.7919   -3085.2478    789.56996    9.2426578    9.2426578    9.2426578    53.892774 
   13700    295.73061   -10530.476            0   -9649.8411   -16008.987    790.04058    9.2444937    9.2444937    9.2444937    51.255409 
   13800    288.85277   -10510.618            0    -9650.464   -7737.4169     790.3787    9.2458124    9.2458124    9.2458124    43.622952 
   13900    298.36976   -10539.178            0   -9650.6834   -4694.6734    790.40228    9.2459043    9.2459043    9.2459043    45.454625 
   14000    301.05311   -10545.701            0   -9649.2161   -6387.8784    790.32517    9.2456036    9.2456036    9.2456036    37.902929 
Loop time of 24.182 on 16 procs for 1000 steps with 1000 atoms

Performance: 3.573 ns/day, 6.717 hours/ns, 41.353 timesteps/s
94.4% CPU use with 16 MPI tasks x no OpenMP threads

MPI task timing breakdown:
Section |  min time  |  avg time  |  max time  |%varavg| %total
---------------------------------------------------------------
Pair    | 1.6514     | 1.749      | 2.1975     |   9.4 |  7.23
Neigh   | 0.59391    | 0.61725    | 0.7424     |   4.5 |  2.55
Comm    | 0.38855    | 0.96199    | 1.0825     |  16.2 |  3.98
Output  | 14.274     | 14.687     | 20.821     |  41.3 | 60.73
Modify  | 0.024002   | 6.1598     | 6.5734     |  63.8 | 25.47
Other   |            | 0.007116   |            |       |  0.03

Nlocal:    62.5 ave 67 max 59 min
Histogram: 1 3 3 2 0 2 0 3 1 1
Nghost:    1831.31 ave 1860 max 1804 min
Histogram: 1 2 1 1 3 3 2 2 0 1
Neighs:    0 ave 0 max 0 min
Histogram: 16 0 0 0 0 0 0 0 0 0
FullNghs:  18677.8 ave 20091 max 17773 min
Histogram: 5 2 1 1 2 0 0 2 2 1

Total # of neighbors = 298844
Ave neighs/atom = 298.844
Neighbor list builds = 1000
Dangerous builds not checked
Setting up Verlet run ...
  Unit style    : real
  Current step  : 14000
  Time step     : 1
Per MPI rank memory allocation (min/avg/max) = 4.577 | 4.579 | 4.58 Mbytes
Step Temp E_pair E_mol TotEng Press Volume Lx Ly Lz S/CPU 
   14000    301.05311   -10545.701            0   -9649.2161   -6387.8784    790.32517    9.2456036    9.2456036    9.2456036            0 
   14100    296.25723   -10528.283            0   -9646.0791    1607.1737    790.33369    9.2456368    9.2456368    9.2456368    50.575527 
   14200    283.98083   -10487.827            0    -9642.181    -7592.622    790.32243     9.245593     9.245593     9.245593    56.082451 
   14300     290.6401   -10503.516            0   -9638.0389   -6604.9219    790.03565    9.2444745    9.2444745    9.2444745     41.00465 
   14400    286.35132   -10485.612            0   -9632.9065   -16380.908     789.1915    9.2411808    9.2411808    9.2411808     54.81084 
   14500     299.1112    -10519.13            0   -9628.4277   -15761.768    787.58845    9.2349195    9.2349195    9.2349195    70.638531 
   14600    288.95731   -10482.192            0   -9621.7266   -16080.316    785.02092    9.2248733    9.2248733    9.2248733      38.6032 
   14700    296.34377   -10498.243            0    -9615.782     3067.544    781.72654     9.211951     9.211951     9.211951    42.670486 
   14800    298.98726   -10500.317            0   -9609.9842    8148.5571    778.06874    9.1975605    9.1975605    9.1975605    42.541409 
   14900    297.91729   -10492.806            0   -9605.6589    17166.206    774.53243    9.1836051    9.1836051    9.1836051     52.09568 
   15000    311.03608   -10528.247            0   -9602.0348    29960.659    772.00612    9.1736095    9.1736095    9.1736095    52.000542 
Loop time of 20.5665 on 16 procs for 1000 steps with 1000 atoms

Performance: 4.201 ns/day, 5.713 hours/ns, 48.623 timesteps/s
94.5% CPU use with 16 MPI tasks x no OpenMP threads

MPI task timing breakdown:
Section |  min time  |  avg time  |  max time  |%varavg| %total
---------------------------------------------------------------
Pair    | 1.6762     | 1.7741     | 2.2146     |   9.1 |  8.63
Neigh   | 0.59604    | 0.62131    | 0.74419    |   4.4 |  3.02
Comm    | 0.40188    | 0.96408    | 1.0867     |  15.7 |  4.69
Output  | 11.293     | 11.665     | 17.174     |  41.6 | 56.72
Modify  | 0.023957   | 5.5353     | 5.9072     |  60.5 | 26.91
Other   |            | 0.007156   |            |       |  0.03

Nlocal:    62.5 ave 67 max 56 min
Histogram: 1 0 2 1 0 2 5 2 0 3
Nghost:    1870.94 ave 1887 max 1847 min
Histogram: 1 1 1 1 1 3 3 0 0 5
Neighs:    0 ave 0 max 0 min
Histogram: 16 0 0 0 0 0 0 0 0 0
FullNghs:  19139.9 ave 20598 max 17095 min
Histogram: 1 0 1 2 1 1 6 1 2 1

Total # of neighbors = 306238
Ave neighs/atom = 306.238
Neighbor list builds = 1000
Dangerous builds not checked
Setting up Verlet run ...
  Unit style    : real
  Current step  : 15000
  Time step     : 1
Per MPI rank memory allocation (min/avg/max) = 4.577 | 4.579 | 4.58 Mbytes
Step Temp E_pair E_mol TotEng Press Volume Lx Ly Lz S/CPU 
   15000    311.03608   -10528.247            0   -9602.0348    29960.659    772.00612    9.1736095    9.1736095    9.1736095            0 
   15100    300.60376   -10494.598            0   -9599.4517    11905.455    771.20904    9.1704512    9.1704512    9.1704512     45.29539 
   15200    303.79935    -10502.75            0   -9598.0872    23868.457     771.7885    9.1727474    9.1727474    9.1727474    47.054519 
   15300    295.16363   -10476.656            0   -9597.7091    13700.589    773.69383    9.1802895    9.1802895    9.1802895    55.098045 
   15400    301.76371   -10496.773            0   -9598.1726    6699.2235    776.81906    9.1926337    9.1926337    9.1926337    37.407432 
   15500    309.69293   -10520.207            0   -9597.9942    -83.98618    780.49302    9.2071031    9.2071031    9.2071031    44.872094 
   15600    297.45213    -10483.67            0   -9597.9081    4828.6245    784.08122     9.221191     9.221191     9.221191    39.018295 
   15700    307.24227   -10512.438            0   -9597.5227   -4914.6997    787.67475    9.2352568    9.2352568    9.2352568    54.221284 
   15800    294.44696   -10472.477            0   -9595.6644   -8927.0349    790.91429    9.2479004    9.2479004    9.2479004    43.937063 
   15900     297.2423   -10480.588            0   -9595.4511   -18981.074    793.75607    9.2589631    9.2589631    9.2589631    44.740625 
   16000    301.38866   -10492.486            0   -9595.0023   -21399.806    795.57709    9.2660383    9.2660383    9.2660383    49.840308 
Loop time of 21.9744 on 16 procs for 1000 steps with 1000 atoms

Performance: 3.932 ns/day, 6.104 hours/ns, 45.507 timesteps/s
94.5% CPU use with 16 MPI tasks x no OpenMP threads

MPI task timing breakdown:
Section |  min time  |  avg time  |  max time  |%varavg| %total
---------------------------------------------------------------
Pair    | 1.6575     | 1.8026     | 2.2846     |   9.9 |  8.20
Neigh   | 0.5938     | 0.62585    | 0.78058    |   5.4 |  2.85
Comm    | 0.35258    | 0.98928    | 1.1689     |  17.6 |  4.50
Output  | 12.483     | 12.864     | 18.523     |  40.7 | 58.54
Modify  | 0.025191   | 5.6855     | 6.0672     |  61.3 | 25.87
Other   |            | 0.007201   |            |       |  0.03

Nlocal:    62.5 ave 66 max 58 min
Histogram: 1 0 2 2 0 4 1 3 1 2
Nghost:    1845.06 ave 1862 max 1832 min
Histogram: 1 1 6 0 1 3 1 0 1 2
Neighs:    0 ave 0 max 0 min
Histogram: 16 0 0 0 0 0 0 0 0 0
FullNghs:  18551.1 ave 19927 max 17297 min
Histogram: 2 1 2 2 2 2 1 2 0 2

Total # of neighbors = 296818
Ave neighs/atom = 296.818
Neighbor list builds = 1000
Dangerous builds not checked
Setting up Verlet run ...
  Unit style    : real
  Current step  : 16000
  Time step     : 1
Per MPI rank memory allocation (min/avg/max) = 4.577 | 4.579 | 4.58 Mbytes
Step Temp E_pair E_mol TotEng Press Volume Lx Ly Lz S/CPU 
   16000    301.38866   -10492.486            0   -9595.0023   -21399.806    795.57709    9.2660383    9.2660383    9.2660383            0 
   16100     307.5846   -10508.772            0   -9592.8374   -25034.677    795.69008    9.2664769    9.2664769    9.2664769    43.203134 
   16200    305.64622   -10500.906            0   -9590.7433   -34842.127    794.47735    9.2617668    9.2617668    9.2617668    41.136866 
   16300    303.19701   -10490.648            0   -9587.7788   -13411.731     792.2109    9.2529512    9.2529512    9.2529512    56.951999 
   16400    290.57019   -10448.581            0   -9583.3122    2687.2593    789.46197    9.2422364    9.2422364    9.2422364    60.545036 
   16500    305.28109   -10486.425            0   -9577.3499    2257.4446    786.59868    9.2310493    9.2310493    9.2310493    48.989263 
   16600    292.00324   -10438.123            0    -9568.587    12425.258    783.83888    9.2202409    9.2202409    9.2202409    52.067617 
   16700    306.80981   -10474.137            0   -9560.5103    23488.072    781.63242    9.2115813    9.2115813    9.2115813    38.584692 
   16800    314.47754   -10486.048            0   -9549.5879    11212.919    780.48735    9.2070808    9.2070808    9.2070808    57.880512 
   16900    305.85926   -10452.573            0   -9541.7765    4492.1612    780.16694    9.2058208    9.2058208    9.2058208    47.474892 
   17000    308.27575   -10451.923            0   -9533.9309     14255.49    780.28614    9.2062896    9.2062896    9.2062896    47.234852 
Loop time of 20.6578 on 16 procs for 1000 steps with 1000 atoms

Performance: 4.182 ns/day, 5.738 hours/ns, 48.408 timesteps/s
94.6% CPU use with 16 MPI tasks x no OpenMP threads

MPI task timing breakdown:
Section |  min time  |  avg time  |  max time  |%varavg| %total
---------------------------------------------------------------
Pair    | 1.6755     | 1.7763     | 2.2574     |  10.1 |  8.60
Neigh   | 0.5978     | 0.62488    | 0.77221    |   5.3 |  3.02
Comm    | 0.39507    | 1.0235     | 1.1489     |  17.4 |  4.95
Output  | 10.939     | 11.334     | 17.201     |  45.0 | 54.86
Modify  | 0.024046   | 5.8923     | 6.2878     |  62.4 | 28.52
Other   |            | 0.007203   |            |       |  0.03

Nlocal:    62.5 ave 67 max 58 min
Histogram: 1 1 2 1 4 0 4 1 1 1
Nghost:    1854 ave 1864 max 1836 min
Histogram: 1 0 0 2 3 1 2 1 2 4
Neighs:    0 ave 0 max 0 min
Histogram: 16 0 0 0 0 0 0 0 0 0
FullNghs:  18918.5 ave 20472 max 17640 min
Histogram: 2 2 0 3 2 1 3 2 0 1

Total # of neighbors = 302696
Ave neighs/atom = 302.696
Neighbor list builds = 1000
Dangerous builds not checked
Setting up Verlet run ...
  Unit style    : real
  Current step  : 17000
  Time step     : 1
Per MPI rank memory allocation (min/avg/max) = 4.577 | 4.579 | 4.58 Mbytes
Step Temp E_pair E_mol TotEng Press Volume Lx Ly Lz S/CPU 
   17000    308.27575   -10451.923            0   -9533.9309     14255.49    780.28614    9.2062896    9.2062896    9.2062896            0 
   17100    303.96287   -10433.007            0   -9527.8572    17745.966    781.00341    9.2091096    9.2091096    9.2091096    56.331404 
   17200    311.74783   -10453.692            0   -9525.3597     2344.624    782.36415    9.2144549    9.2144549    9.2144549    41.319959 
   17300    311.13582   -10450.094            0   -9523.5846    11555.694    784.00076    9.2208756    9.2208756    9.2208756    42.598123 
   17400    310.73728   -10449.817            0   -9524.4942    3442.6297    786.10344    9.2291116    9.2291116    9.2291116    46.245717 
   17500    301.95738   -10424.334            0    -9525.157   -2701.2651    788.56933    9.2387517    9.2387517    9.2387517    46.396178 
   17600    304.31784   -10435.139            0   -9528.9322    1339.6072    790.57413    9.2465743    9.2465743    9.2465743    44.826988 
   17700    297.27224   -10418.596            0   -9533.3703   -28917.324    792.16105    9.2527571    9.2527571    9.2527571    48.809289 
   17800    301.38126    -10438.29            0   -9540.8281   -19533.553    792.65625    9.2546847    9.2546847    9.2546847     51.81674 
   17900    307.09812    -10465.87            0   -9551.3844   -14615.699    792.42549    9.2537866    9.2537866    9.2537866    54.192051 
   18000    301.42439   -10462.117            0   -9564.5264   -2179.9386    791.45344    9.2500012    9.2500012    9.2500012     45.73765 
Loop time of 21.1018 on 16 procs for 1000 steps with 1000 atoms

Performance: 4.094 ns/day, 5.862 hours/ns, 47.389 timesteps/s
94.5% CPU use with 16 MPI tasks x no OpenMP threads

MPI task timing breakdown:
Section |  min time  |  avg time  |  max time  |%varavg| %total
---------------------------------------------------------------
Pair    | 1.6537     | 1.776      | 2.1674     |   8.7 |  8.42
Neigh   | 0.58595    | 0.62384    | 0.74279    |   4.6 |  2.96
Comm    | 0.51795    | 1.0286     | 1.1888     |  14.9 |  4.87
Output  | 12.143     | 12.49      | 17.64      |  37.6 | 59.19
Modify  | 0.024923   | 5.1758     | 5.5236     |  58.5 | 24.53
Other   |            | 0.007168   |            |       |  0.03

Nlocal:    62.5 ave 67 max 58 min
Histogram: 3 0 0 3 2 3 1 1 0 3
Nghost:    1843.56 ave 1861 max 1822 min
Histogram: 1 0 3 2 2 1 1 2 1 3
Neighs:    0 ave 0 max 0 min
Histogram: 16 0 0 0 0 0 0 0 0 0
FullNghs:  18642.4 ave 20081 max 17207 min
Histogram: 3 0 0 3 2 3 1 0 1 3

Total # of neighbors = 298278
Ave neighs/atom = 298.278
Neighbor list builds = 1000
Dangerous builds not checked
Setting up Verlet run ...
  Unit style    : real
  Current step  : 18000
  Time step     : 1
Per MPI rank memory allocation (min/avg/max) = 4.577 | 4.579 | 4.58 Mbytes
Step Temp E_pair E_mol TotEng Press Volume Lx Ly Lz S/CPU 
   18000    301.42439   -10462.117            0   -9564.5264   -2179.9386    791.45344    9.2500012    9.2500012    9.2500012            0 
   18100     304.8722   -10486.895            0    -9579.038   -10478.124    789.87584    9.2438511    9.2438511    9.2438511    44.336976 
   18200    308.14729   -10508.997            0   -9591.3874   -6748.2869    787.74374    9.2355264    9.2355264    9.2355264     52.57604 
   18300    299.80396   -10493.357            0   -9600.5919     8376.575    785.17378     9.225472     9.225472     9.225472    30.028047 
   18400    298.83023   -10497.896            0   -9608.0305    2983.2334    783.08006    9.2172646    9.2172646    9.2172646    44.795653 
   18500    288.56764   -10471.744            0   -9612.4387   -4225.1311    781.64105    9.2116152    9.2116152    9.2116152    58.770585 
   18600    291.20012   -10483.156            0    -9616.012    14227.953     780.5039    9.2071459    9.2071459    9.2071459    39.438863 
   18700    296.64224   -10501.998            0   -9618.6483    3322.1204    779.96087    9.2050102    9.2050102    9.2050102    46.734487 
   18800    299.91869   -10513.128            0   -9620.0212    825.06821    779.85023    9.2045749    9.2045749    9.2045749    47.326249 
   18900    296.58126   -10502.385            0    -9619.217     2307.739    779.88095    9.2046957    9.2046957    9.2046957    37.872665 
   19000     289.8463   -10480.878            0   -9617.7649    13752.355    780.20956    9.2059884    9.2059884    9.2059884    60.941356 
Loop time of 22.4913 on 16 procs for 1000 steps with 1000 atoms

Performance: 3.841 ns/day, 6.248 hours/ns, 44.462 timesteps/s
94.6% CPU use with 16 MPI tasks x no OpenMP threads

MPI task timing breakdown:
Section |  min time  |  avg time  |  max time  |%varavg| %total
---------------------------------------------------------------
Pair    | 1.6877     | 1.8124     | 2.4902     |  14.7 |  8.06
Neigh   | 0.5967     | 0.63073    | 0.82205    |   7.0 |  2.80
Comm    | 0.34095    | 1.2087     | 1.3666     |  22.9 |  5.37
Output  | 12.753     | 13.135     | 18.804     |  40.4 | 58.40
Modify  | 0.025268   | 5.6971     | 6.0796     |  61.4 | 25.33
Other   |            | 0.007231   |            |       |  0.03

Nlocal:    62.5 ave 67 max 53 min
Histogram: 1 0 0 1 0 3 2 5 1 3
Nghost:    1875.12 ave 1896 max 1856 min
Histogram: 3 1 1 0 2 1 4 3 0 1
Neighs:    0 ave 0 max 0 min
Histogram: 16 0 0 0 0 0 0 0 0 0
FullNghs:  18925.1 ave 20402 max 16078 min
Histogram: 1 0 0 1 0 3 4 3 1 3

Total # of neighbors = 302802
Ave neighs/atom = 302.802
Neighbor list builds = 1000
Dangerous builds not checked
Setting up Verlet run ...
  Unit style    : real
  Current step  : 19000
  Time step     : 1
Per MPI rank memory allocation (min/avg/max) = 4.577 | 4.579 | 4.58 Mbytes
Step Temp E_pair E_mol TotEng Press Volume Lx Ly Lz S/CPU 
   19000     289.8463   -10480.878            0   -9617.7649    13752.355    780.20956    9.2059884    9.2059884    9.2059884            0 
   19100    290.75902   -10483.346            0   -9617.5156    16161.214    781.32456    9.2103717    9.2103717    9.2103717    49.646802 
   19200    291.51635   -10482.808            0    -9614.722    647.44762    782.84693    9.2163498    9.2163498    9.2163498    46.153474 
   19300    307.64214   -10529.545            0   -9613.4391    4231.2595    784.18502    9.2215979    9.2215979    9.2215979    44.076076 
   19400    299.64322   -10502.263            0   -9609.9764    9182.0841    786.09489    9.2290782    9.2290782    9.2290782    41.589903 
   19500    296.18548   -10488.229            0   -9606.2388   -6985.5079     788.4033    9.2381032    9.2381032    9.2381032    47.631628 
   19600    307.54475   -10516.598            0   -9600.7823   -13361.106     790.3308    9.2456256    9.2456256    9.2456256    48.363484 
   19700    301.82097    -10490.62            0   -9591.8488   -15742.511    791.46248    9.2500364    9.2500364    9.2500364    48.822436 
   19800    300.50015   -10476.986            0   -9582.1479   -5684.0824    792.08586    9.2524643    9.2524643    9.2524643    43.207505 
   19900    304.66366   -10476.699            0   -9569.4622   -6330.9176    792.21552    9.2529692    9.2529692    9.2529692    38.385497 
   20000     308.0346   -10473.309            0   -9556.0348   -10954.804    792.05763    9.2523544    9.2523544    9.2523544    59.149233 
Loop time of 21.6798 on 16 procs for 1000 steps with 1000 atoms

Performance: 3.985 ns/day, 6.022 hours/ns, 46.126 timesteps/s
94.5% CPU use with 16 MPI tasks x no OpenMP threads

MPI task timing breakdown:
Section |  min time  |  avg time  |  max time  |%varavg| %total
---------------------------------------------------------------
Pair    | 1.653      | 1.7522     | 1.9924     |   7.0 |  8.08
Neigh   | 0.5918     | 0.61856    | 0.69938    |   4.1 |  2.85
Comm    | 0.49975    | 0.82049    | 0.94207    |  13.6 |  3.78
Output  | 12.354     | 12.739     | 18.457     |  41.4 | 58.76
Modify  | 0.02317    | 5.7421     | 6.1277     |  61.6 | 26.49
Other   |            | 0.007141   |            |       |  0.03

Nlocal:    62.5 ave 68 max 57 min
Histogram: 1 0 3 3 3 0 2 1 1 2
Nghost:    1846.44 ave 1873 max 1823 min
Histogram: 2 1 2 1 4 1 1 1 0 3
Neighs:    0 ave 0 max 0 min
Histogram: 16 0 0 0 0 0 0 0 0 0
FullNghs:  18644.6 ave 20408 max 16941 min
Histogram: 1 0 2 3 4 0 2 2 1 1

Total # of neighbors = 298314
Ave neighs/atom = 298.314
Neighbor list builds = 1000
Dangerous builds not checked
Setting up Verlet run ...
  Unit style    : real
  Current step  : 20000
  Time step     : 1
Per MPI rank memory allocation (min/avg/max) = 4.577 | 4.579 | 4.58 Mbytes
Step Temp E_pair E_mol TotEng Press Volume Lx Ly Lz S/CPU 
   20000     308.0346   -10473.309            0   -9556.0348   -10954.804    792.05763    9.2523544    9.2523544    9.2523544            0 
   20100    303.53066   -10446.107            0   -9542.2441   -2719.1173    791.42108    9.2498752    9.2498752    9.2498752    36.425555 
   20200    312.43997   -10462.991            0    -9532.598   -2365.6708    790.57896    9.2465932    9.2465932    9.2465932     40.00386 
   20300    306.04878   -10437.939            0   -9526.5777   -14428.048    789.63327    9.2429048    9.2429048    9.2429048    35.979824 
   20400    296.83644   -10405.652            0   -9521.7239   -4170.1027    788.04453    9.2367017    9.2367017    9.2367017    45.941251 
   20500    308.43759   -10441.253            0   -9522.7789   -4735.8393    786.04206    9.2288714    9.2288714    9.2288714    48.648167 
   20600    318.16205   -10472.574            0   -9525.1414    5546.1279    784.11818    9.2213359    9.2213359    9.2213359    43.147637 
   20700    311.11758   -10455.308            0   -9528.8529     4978.468    782.68909    9.2157304    9.2157304    9.2157304    44.728912 
   20800     312.2637   -10463.207            0   -9533.3389     10446.51    781.90714    9.2126603    9.2126603    9.2126603    47.213034 
   20900    318.10619   -10487.621            0   -9540.3554    8739.9282    781.73675    9.2119911    9.2119911    9.2119911     41.56479 
   21000    323.88248   -10514.138            0   -9549.6716    4751.6994    782.17738    9.2137216    9.2137216    9.2137216    39.698645 
Loop time of 23.853 on 16 procs for 1000 steps with 1000 atoms

Performance: 3.622 ns/day, 6.626 hours/ns, 41.924 timesteps/s
94.5% CPU use with 16 MPI tasks x no OpenMP threads

MPI task timing breakdown:
Section |  min time  |  avg time  |  max time  |%varavg| %total
---------------------------------------------------------------
Pair    | 1.6595     | 1.8006     | 2.4341     |  13.2 |  7.55
Neigh   | 0.58962    | 0.62936    | 0.8061     |   6.3 |  2.64
Comm    | 0.34599    | 1.1563     | 1.3373     |  21.0 |  4.85
Output  | 13.779     | 14.186     | 20.234     |  41.5 | 59.47
Modify  | 0.024528   | 6.0732     | 6.4809     |  63.4 | 25.46
Other   |            | 0.007238   |            |       |  0.03

Nlocal:    62.5 ave 68 max 58 min
Histogram: 2 1 2 1 1 2 4 1 0 2
Nghost:    1846.88 ave 1863 max 1839 min
Histogram: 6 2 1 1 1 2 0 1 1 1
Neighs:    0 ave 0 max 0 min
Histogram: 16 0 0 0 0 0 0 0 0 0
FullNghs:  18862 ave 20629 max 17334 min
Histogram: 3 1 1 1 2 3 2 1 0 2

Total # of neighbors = 301792
Ave neighs/atom = 301.792
Neighbor list builds = 1000
Dangerous builds not checked
Setting up Verlet run ...
  Unit style    : real
  Current step  : 21000
  Time step     : 1
Per MPI rank memory allocation (min/avg/max) = 4.577 | 4.579 | 4.58 Mbytes
Step Temp E_pair E_mol TotEng Press Volume Lx Ly Lz S/CPU 
   21000    323.88248   -10514.138            0   -9549.6716    4751.6994    782.17738    9.2137216    9.2137216    9.2137216            0 
   21100    318.04288   -10505.639            0   -9558.5613   -8451.7463    782.96775    9.2168239    9.2168239    9.2168239    29.215786 
   21200    308.98292    -10486.23            0   -9566.1319   -21542.082    783.76119    9.2199362    9.2199362    9.2199362    45.239743 
   21300    312.48867   -10506.131            0   -9575.5928    4812.6736    784.49876    9.2228275    9.2228275    9.2228275    43.462577 
   21400    316.42794   -10525.707            0   -9583.4383   -713.50754    785.39692    9.2263459    9.2263459    9.2263459    55.572202 
   21500    306.28578   -10503.603            0   -9591.5361    4791.6245    786.05302    9.2289143    9.2289143    9.2289143    42.893897 
   21600    292.82148   -10469.308            0   -9597.3361    3831.8667    786.65209    9.2312583    9.2312583    9.2312583    41.794237 
   21700    300.43032   -10497.614            0   -9602.9838    7121.5148    786.73511     9.231583     9.231583     9.231583     44.79204 
   21800    302.05508    -10506.48            0   -9607.0117   -17203.359    786.59027    9.2310164    9.2310164    9.2310164    38.593152 
   21900    297.34782   -10494.354            0   -9608.9025   -2646.4314    786.22534    9.2295886    9.2295886    9.2295886    54.571066 
   22000    291.50629   -10479.389            0   -9611.3325   -8679.7674    785.75019     9.227729     9.227729     9.227729    41.886118 
Loop time of 23.5012 on 16 procs for 1000 steps with 1000 atoms

Performance: 3.676 ns/day, 6.528 hours/ns, 42.551 timesteps/s
94.5% CPU use with 16 MPI tasks x no OpenMP threads

MPI task timing breakdown:
Section |  min time  |  avg time  |  max time  |%varavg| %total
---------------------------------------------------------------
Pair    | 1.676      | 1.7881     | 2.3086     |  11.9 |  7.61
Neigh   | 0.59378    | 0.62572    | 0.78181    |   6.2 |  2.66
Comm    | 0.4159     | 1.0926     | 1.2286     |  19.8 |  4.65
Output  | 13.987     | 14.364     | 19.961     |  38.1 | 61.12
Modify  | 0.025574   | 5.6236     | 6.0016     |  61.0 | 23.93
Other   |            | 0.007213   |            |       |  0.03

Nlocal:    62.5 ave 67 max 59 min
Histogram: 1 1 5 3 0 2 1 0 1 2
Nghost:    1858.81 ave 1890 max 1826 min
Histogram: 1 0 4 0 3 1 3 2 0 2
Neighs:    0 ave 0 max 0 min
Histogram: 16 0 0 0 0 0 0 0 0 0
FullNghs:  18772.9 ave 20233 max 17556 min
Histogram: 2 0 1 6 2 1 0 1 2 1

Total # of neighbors = 300366
Ave neighs/atom = 300.366
Neighbor list builds = 1000
Dangerous builds not checked
Setting up Verlet run ...
  Unit style    : real
  Current step  : 22000
  Time step     : 1
Per MPI rank memory allocation (min/avg/max) = 4.577 | 4.579 | 4.58 Mbytes
Step Temp E_pair E_mol TotEng Press Volume Lx Ly Lz S/CPU 
   22000    291.50629   -10479.389            0   -9611.3325   -8679.7674    785.75019     9.227729     9.227729     9.227729            0 
   22100    296.07534   -10495.196            0   -9613.5339   -1336.0847    785.02968    9.2249076    9.2249076    9.2249076    48.665344 
   22200     301.4491   -10511.565            0   -9613.9009   -6285.5552    784.39246     9.222411     9.222411     9.222411    46.400503 
   22300     299.1428   -10505.578            0   -9614.7816     12527.89     783.7815    9.2200159    9.2200159    9.2200159     41.26156 
   22400    288.28551   -10472.968            0   -9614.5027   -1493.3891    783.58934    9.2192623    9.2192623    9.2192623    45.615895 
   22500    309.63268   -10536.599            0   -9614.5662    8566.8674    783.74332    9.2198662    9.2198662    9.2198662    49.556118 
   22600    301.76625   -10512.717            0   -9614.1088   -1830.9913    784.37105     9.222327     9.222327     9.222327    47.110981 
   22700    304.95352   -10520.947            0   -9612.8476   -8418.3157    784.80428    9.2240246    9.2240246    9.2240246    44.285044 
   22800    296.95393   -10493.507            0   -9609.2288   -3192.4704    784.86247    9.2242526    9.2242526    9.2242526    43.789217 
   22900    292.87477   -10476.419            0   -9604.2883    17794.324    785.03123    9.2249137    9.2249137    9.2249137    37.765214 
   23000    305.19906   -10507.241            0   -9598.4098   -3245.6902    785.76497    9.2277868    9.2277868    9.2277868    39.685928 
Loop time of 22.6759 on 16 procs for 1000 steps with 1000 atoms

Performance: 3.810 ns/day, 6.299 hours/ns, 44.100 timesteps/s
94.5% CPU use with 16 MPI tasks x no OpenMP threads

MPI task timing breakdown:
Section |  min time  |  avg time  |  max time  |%varavg| %total
---------------------------------------------------------------
Pair    | 1.6705     | 1.7853     | 2.2711     |  10.0 |  7.87
Neigh   | 0.59303    | 0.62369    | 0.76527    |   5.0 |  2.75
Comm    | 0.40287    | 1.0295     | 1.1654     |  16.9 |  4.54
Output  | 13.01      | 13.401     | 19.204     |  40.9 | 59.10
Modify  | 0.024053   | 5.8292     | 6.2211     |  62.1 | 25.71
Other   |            | 0.007192   |            |       |  0.03

Nlocal:    62.5 ave 68 max 59 min
Histogram: 1 4 3 1 2 1 1 1 1 1
Nghost:    1855.75 ave 1868 max 1842 min
Histogram: 1 3 2 0 0 0 3 4 2 1
Neighs:    0 ave 0 max 0 min
Histogram: 16 0 0 0 0 0 0 0 0 0
FullNghs:  18793.6 ave 20265 max 17701 min
Histogram: 1 4 3 1 1 2 1 0 1 2

Total # of neighbors = 300698
Ave neighs/atom = 300.698
Neighbor list builds = 1000
Dangerous builds not checked
Setting up Verlet run ...
  Unit style    : real
  Current step  : 23000
  Time step     : 1
Per MPI rank memory allocation (min/avg/max) = 4.578 | 4.579 | 4.58 Mbytes
Step Temp E_pair E_mol TotEng Press Volume Lx Ly Lz S/CPU 
   23000    305.19906   -10507.241            0   -9598.4098   -3245.6902    785.76497    9.2277868    9.2277868    9.2277868            0 
   23100    294.09392   -10464.034            0   -9588.2727   -17478.965    786.49691    9.2306512    9.2306512    9.2306512    56.172803 
   23200    313.25429   -10510.585            0    -9577.767    3116.5832    786.52978    9.2307798    9.2307798    9.2307798    45.772436 
   23300    302.60073   -10466.075            0   -9564.9812    -10103.87    786.34546    9.2300586    9.2300586    9.2300586    58.203582 
   23400    298.09157   -10440.923            0   -9553.2571    9090.1027    785.94153     9.228478     9.228478     9.228478    45.760305 
   23500    304.64422   -10451.829            0   -9544.6503   -17572.923    785.77482    9.2278254    9.2278254    9.2278254    33.626467 
   23600    316.64039   -10480.493            0   -9537.5919   -563.41732    785.22058    9.2256553    9.2256553    9.2256553    64.077508 
   23700    305.66265   -10442.827            0   -9532.6155    1426.2742    784.85894    9.2242388    9.2242388    9.2242388    46.383005 
   23800    294.29037   -10406.043            0   -9529.6967    2935.1241      784.959    9.2246308    9.2246308    9.2246308    53.965903 
   23900    312.97163    -10463.72            0   -9531.7439   -3341.8373    785.03612    9.2249329    9.2249329    9.2249329    50.998546 
   24000    308.58773   -10453.253            0   -9534.3317    2604.8316    785.29336    9.2259404    9.2259404    9.2259404    45.304578 
Loop time of 20.5799 on 16 procs for 1000 steps with 1000 atoms

Performance: 4.198 ns/day, 5.717 hours/ns, 48.591 timesteps/s
94.7% CPU use with 16 MPI tasks x no OpenMP threads

MPI task timing breakdown:
Section |  min time  |  avg time  |  max time  |%varavg| %total
---------------------------------------------------------------
Pair    | 1.7076     | 1.8177     | 2.4958     |  14.3 |  8.83
Neigh   | 0.59633    | 0.63341    | 0.8357     |   7.2 |  3.08
Comm    | 0.37909    | 1.2592     | 1.403      |  22.2 |  6.12
Output  | 11.33      | 11.678     | 16.836     |  39.0 | 56.74
Modify  | 0.024962   | 5.1844     | 5.5326     |  58.5 | 25.19
Other   |            | 0.007222   |            |       |  0.04

Nlocal:    62.5 ave 69 max 58 min
Histogram: 3 0 2 4 3 1 0 1 1 1
Nghost:    1854.56 ave 1870 max 1837 min
Histogram: 1 2 0 2 3 1 1 4 1 1
Neighs:    0 ave 0 max 0 min
Histogram: 16 0 0 0 0 0 0 0 0 0
FullNghs:  18781.4 ave 20856 max 17453 min
Histogram: 3 0 2 4 3 1 1 1 0 1

Total # of neighbors = 300502
Ave neighs/atom = 300.502
Neighbor list builds = 1000
Dangerous builds not checked
Setting up Verlet run ...
  Unit style    : real
  Current step  : 24000
  Time step     : 1
Per MPI rank memory allocation (min/avg/max) = 4.578 | 4.579 | 4.58 Mbytes
Step Temp E_pair E_mol TotEng Press Volume Lx Ly Lz S/CPU 
   24000    308.58773   -10453.253            0   -9534.3317    2604.8316    785.29336    9.2259404    9.2259404    9.2259404            0 
   24100    306.22679   -10452.513            0   -9540.6221    9019.7574    785.73067    9.2276526    9.2276526    9.2276526    46.567619 
   24200    300.19858   -10441.602            0   -9547.6622    1183.6885    786.19449    9.2294679    9.2294679    9.2294679    49.216429 
   24300    300.76575   -10453.119            0     -9557.49   -5585.3911    786.65858    9.2312836    9.2312836    9.2312836    49.077458 
   24400    307.95691   -10485.208            0   -9568.1648   -5225.6322    787.03908    9.2327718    9.2327718    9.2327718     53.96679 
   24500    315.48083   -10518.907            0    -9579.459   -13548.462    787.01386    9.2326731    9.2326731    9.2326731    47.262091 
   24600    306.70748   -10502.072            0   -9588.7496   -8929.5476    785.98449    9.2286461    9.2286461    9.2286461    56.010269 
   24700    294.64755   -10473.367            0   -9595.9571    6110.3359    784.28566    9.2219923    9.2219923    9.2219923    60.774456 
   24800      311.884   -10531.311            0   -9602.5732     14371.96     782.6949    9.2157532    9.2157532    9.2157532    48.669894 
   24900    296.41706   -10489.032            0   -9606.3522    11935.383    781.30841    9.2103083    9.2103083    9.2103083    53.375552 
   25000    299.14504   -10500.665            0   -9609.8619    16327.908    780.30778    9.2063747    9.2063747    9.2063747    38.531192 
Loop time of 20.14 on 16 procs for 1000 steps with 1000 atoms

Performance: 4.290 ns/day, 5.594 hours/ns, 49.652 timesteps/s
94.5% CPU use with 16 MPI tasks x no OpenMP threads

MPI task timing breakdown:
Section |  min time  |  avg time  |  max time  |%varavg| %total
---------------------------------------------------------------
Pair    | 1.6971     | 1.7712     | 2.1829     |   8.4 |  8.79
Neigh   | 0.59716    | 0.62145    | 0.76021    |   5.0 |  3.09
Comm    | 0.3707     | 0.92089    | 1.0217     |  15.6 |  4.57
Output  | 11.249     | 11.6       | 16.794     |  39.4 | 57.60
Modify  | 0.024249   | 5.2195     | 5.5705     |  58.7 | 25.92
Other   |            | 0.00716    |            |       |  0.04

Nlocal:    62.5 ave 67 max 58 min
Histogram: 1 2 1 2 3 1 1 2 2 1
Nghost:    1859.69 ave 1872 max 1853 min
Histogram: 1 5 1 3 1 3 1 0 0 1
Neighs:    0 ave 0 max 0 min
Histogram: 16 0 0 0 0 0 0 0 0 0
FullNghs:  18918.6 ave 20407 max 17554 min
Histogram: 3 0 2 1 3 1 1 2 2 1

Total # of neighbors = 302698
Ave neighs/atom = 302.698
Neighbor list builds = 1000
Dangerous builds not checked
Setting up Verlet run ...
  Unit style    : real
  Current step  : 25000
  Time step     : 1
Per MPI rank memory allocation (min/avg/max) = 4.578 | 4.579 | 4.58 Mbytes
Step Temp E_pair E_mol TotEng Press Volume Lx Ly Lz S/CPU 
   25000    299.14504   -10500.665            0   -9609.8619    16327.908    780.30778    9.2063747    9.2063747    9.2063747            0 
   25100    307.16176   -10528.863            0   -9614.1876   -383.08727    779.89008    9.2047317    9.2047317    9.2047317    41.856374 
   25200    298.10721   -10505.272            0   -9617.5601    6215.2763    779.89406    9.2047473    9.2047473    9.2047473    51.945832 
   25300    306.50311   -10532.069            0   -9619.3554   -4064.9677    780.71386    9.2079714    9.2079714    9.2079714     54.06046 
   25400    299.40932   -10511.977            0   -9620.3875   -1608.2093     781.6732    9.2117415    9.2117415    9.2117415    31.045278 
   25500    301.07398   -10519.913            0   -9623.3666    7811.7316    782.49016    9.2149495    9.2149495    9.2149495     55.91927 
   25600    294.81529   -10501.171            0   -9623.2611   -7550.9065     783.4757    9.2188167    9.2188167    9.2188167     45.01514 
   25700    300.32047   -10518.373            0     -9624.07   -9303.2793    784.36545    9.2223051    9.2223051    9.2223051    45.661379 
   25800    301.39989   -10520.617            0   -9623.0991   -4197.3901    784.93824    9.2245494    9.2245494    9.2245494    50.259886 
   25900    295.38176   -10501.176            0   -9621.5792    449.98246    784.88751    9.2243507    9.2243507    9.2243507    42.584768 
   26000    288.33826   -10478.852            0   -9620.2304    3295.5923    784.15835    9.2214933    9.2214933    9.2214933    52.516118 
Loop time of 21.8271 on 16 procs for 1000 steps with 1000 atoms

Performance: 3.958 ns/day, 6.063 hours/ns, 45.815 timesteps/s
94.6% CPU use with 16 MPI tasks x no OpenMP threads

MPI task timing breakdown:
Section |  min time  |  avg time  |  max time  |%varavg| %total
---------------------------------------------------------------
Pair    | 1.6617     | 1.8047     | 2.3585     |  12.0 |  8.27
Neigh   | 0.59348    | 0.62754    | 0.79441    |   6.0 |  2.88
Comm    | 0.37151    | 1.0918     | 1.2518     |  19.9 |  5.00
Output  | 12.455     | 12.822     | 18.27      |  39.3 | 58.74
Modify  | 0.024212   | 5.4738     | 5.8416     |  60.1 | 25.08
Other   |            | 0.00732    |            |       |  0.03

Nlocal:    62.5 ave 67 max 57 min
Histogram: 1 1 0 2 2 2 3 1 0 4
Nghost:    1864.38 ave 1875 max 1851 min
Histogram: 1 1 1 2 1 3 0 5 0 2
Neighs:    0 ave 0 max 0 min
Histogram: 16 0 0 0 0 0 0 0 0 0
FullNghs:  18843.2 ave 20176 max 17115 min
Histogram: 1 1 1 2 1 3 2 1 1 3

Total # of neighbors = 301492
Ave neighs/atom = 301.492
Neighbor list builds = 1000
Dangerous builds not checked
Setting up Verlet run ...
  Unit style    : real
  Current step  : 26000
  Time step     : 1
Per MPI rank memory allocation (min/avg/max) = 4.578 | 4.579 | 4.58 Mbytes
Step Temp E_pair E_mol TotEng Press Volume Lx Ly Lz S/CPU 
   26000    288.33826   -10478.852            0   -9620.2304    3295.5923    784.15835    9.2214933    9.2214933    9.2214933            0 
   26100    292.68472   -10489.357            0   -9617.7916    4224.4237    783.01187     9.216997     9.216997     9.216997    46.371626 
   26200    301.48629    -10513.81            0   -9616.0353     11313.54    782.01983    9.2131029    9.2131029    9.2131029    42.870404 
   26300    303.80154     -10517.2            0   -9612.5312    12492.467     781.8496    9.2124344    9.2124344    9.2124344    53.059487 
   26400    295.77191   -10488.439            0   -9607.6805    18094.899    782.32434    9.2142986    9.2142986    9.2142986     62.00317 
   26500    287.94524   -10458.607            0   -9601.1554   -2915.9131    783.64858    9.2194946    9.2194946    9.2194946    40.092808 
   26600     298.3146   -10480.806            0   -9592.4759    4654.8371    784.88567    9.2243435    9.2243435    9.2243435    50.352018 
   26700    306.68193   -10496.912            0   -9583.6653    -4591.299    786.04405    9.2288792    9.2288792    9.2288792    36.735121 
   26800    312.07136   -10502.446            0   -9573.1503   -1057.8101    787.14374     9.233181     9.233181     9.233181    49.641556 
   26900    312.22838   -10494.242            0   -9564.4788   -11967.212    788.24533    9.2374862    9.2374862    9.2374862    57.123069 
   27000    304.09371   -10462.765            0   -9557.2263   -18827.508    788.52224    9.2385678    9.2385678    9.2385678    37.024068 
Loop time of 21.655 on 16 procs for 1000 steps with 1000 atoms

Performance: 3.990 ns/day, 6.015 hours/ns, 46.179 timesteps/s
94.6% CPU use with 16 MPI tasks x no OpenMP threads

MPI task timing breakdown:
Section |  min time  |  avg time  |  max time  |%varavg| %total
---------------------------------------------------------------
Pair    | 1.6176     | 1.7772     | 2.4763     |  14.3 |  8.21
Neigh   | 0.58765    | 0.62082    | 0.80145    |   6.3 |  2.87
Comm    | 0.30195    | 1.1808     | 1.3712     |  22.0 |  5.45
Output  | 12.017     | 12.397     | 18.042     |  41.4 | 57.25
Modify  | 0.024464   | 5.6716     | 6.0534     |  61.2 | 26.19
Other   |            | 0.007122   |            |       |  0.03

Nlocal:    62.5 ave 67 max 59 min
Histogram: 2 1 2 4 0 2 1 3 0 1
Nghost:    1836.5 ave 1855 max 1818 min
Histogram: 2 3 0 1 2 1 2 1 1 3
Neighs:    0 ave 0 max 0 min
Histogram: 16 0 0 0 0 0 0 0 0 0
FullNghs:  18702.2 ave 20340 max 17480 min
Histogram: 3 1 1 3 3 0 2 2 0 1

Total # of neighbors = 299236
Ave neighs/atom = 299.236
Neighbor list builds = 1000
Dangerous builds not checked
Setting up Verlet run ...
  Unit style    : real
  Current step  : 27000
  Time step     : 1
Per MPI rank memory allocation (min/avg/max) = 4.578 | 4.579 | 4.58 Mbytes
Step Temp E_pair E_mol TotEng Press Volume Lx Ly Lz S/CPU 
   27000    304.09371   -10462.765            0   -9557.2263   -18827.508    788.52224    9.2385678    9.2385678    9.2385678            0 
   27100    303.71414   -10454.961            0   -9550.5523   -14456.849    787.79418    9.2357235    9.2357235    9.2357235     58.42194 
   27200    303.46559   -10450.906            0   -9547.2368   -16702.459    786.06082    9.2289448    9.2289448    9.2289448    47.129939 
   27300     303.9157     -10449.5            0   -9544.4909   -5640.2581    783.61721    9.2193717    9.2193717    9.2193717    49.110497 
   27400    333.13452   -10536.681            0   -9544.6628    22801.091    780.96292    9.2089505    9.2089505    9.2089505    54.807238 
   27500    312.25773   -10476.647            0   -9546.7969    6804.7639    778.99377     9.201204     9.201204     9.201204    63.461062 
   27600    312.80739   -10483.876            0    -9552.389    16465.556    777.89389    9.1968715    9.1968715    9.1968715    44.418632 
   27700    304.35924   -10469.612            0   -9563.2822    12031.442    778.02488    9.1973877    9.1973877    9.1973877    48.104645 
   27800    318.02014   -10525.983            0   -9578.9736    6603.7405    778.88782    9.2007869    9.2007869    9.2007869    45.320717 
   27900    299.82695   -10488.986            0   -9596.1525   -1381.6217    780.22827     9.206062     9.206062     9.206062    39.336394 
   28000    288.71122   -10469.427            0   -9609.6947   -14363.394    781.67595    9.2117523    9.2117523    9.2117523    49.578341 
Loop time of 20.3659 on 16 procs for 1000 steps with 1000 atoms

Performance: 4.242 ns/day, 5.657 hours/ns, 49.102 timesteps/s
[...]
  143700    289.58105   -11413.486            0   -10551.163   -1926.5244    754.32833    9.1030475    9.1030475    9.1030475    55.452061 
  143800    289.42434   -11414.037            0    -10552.18   -8503.7948     752.8207    9.0969788    9.0969788    9.0969788    57.351503 
  143900     294.9715   -11430.993            0   -10552.618    2913.4325    751.23249    9.0905771    9.0905771    9.0905771    49.799934 
  144000    295.24191   -11430.759            0   -10551.579    12610.588    749.78034    9.0847159    9.0847159    9.0847159     65.79216 
  144100    296.33968   -11432.406            0   -10549.957    18371.947    748.89843    9.0811526    9.0811526    9.0811526    65.406022 
  144200    296.15584   -11428.897            0   -10546.995    13891.594    749.05247    9.0817752    9.0817752    9.0817752    70.513831 
  144300    300.37851   -11437.114            0   -10542.638    17528.045    749.69226    9.0843601    9.0843601    9.0843601    46.787296 
  144400    304.90477   -11444.433            0   -10536.478   -9926.6378     750.8204    9.0889146    9.0889146    9.0889146    48.285808 
  144500    292.36725   -11397.682            0   -10527.062    5651.6198    751.90134    9.0932742    9.0932742    9.0932742    53.830747 
  144600    300.73731   -11412.836            0   -10517.292   -9425.0049    752.83444    9.0970342    9.0970342    9.0970342    49.750603 
  144700    302.16282   -11405.282            0   -10505.493   -3866.5469    753.24542    9.0986893    9.0986893    9.0986893    66.405723 
  144800    305.02728   -11402.322            0   -10494.003   -4817.8723    753.18831    9.0984593    9.0984593    9.0984593    54.586243 
  144900    299.13403   -11375.248            0   -10484.478    5309.8856    752.89849    9.0972921    9.0972921    9.0972921    51.937396 
  145000    304.83624   -11384.782            0   -10477.032   -4033.0439    752.66122    9.0963364    9.0963364    9.0963364     55.15635 
  145100    309.15223   -11393.058            0   -10472.455    2954.1474    752.43339    9.0954185    9.0954185    9.0954185    63.049239 
  145200    310.92571   -11395.342            0   -10469.458    9908.2535     752.6449    9.0962707    9.0962707    9.0962707    49.304983 
  145300    315.12505   -11407.833            0   -10469.444   -4065.6429    753.61122    9.1001619    9.1001619    9.1001619    51.250831 
  145400    296.06324   -11350.184            0   -10468.558   -10182.641    754.55557    9.1039615    9.1039615    9.1039615    65.007367 
  145500    310.55736   -11396.909            0   -10472.123    7129.6413     755.2611    9.1067981    9.1067981    9.1067981    47.321343 
  145600    309.09099   -11396.634            0   -10476.214   -13502.811    755.98035     9.109688     9.109688     9.109688    56.914878 
  145700    314.59177   -11418.146            0   -10481.345    -18835.57    756.10194    9.1101764    9.1101764    9.1101764     62.08768 
  145800    301.01044   -11383.499            0   -10487.141   -8607.4865    755.63927    9.1083177    9.1083177    9.1083177    47.353071 
  145900    315.27138   -11435.867            0   -10497.043    471.22204    754.60568     9.104163     9.104163     9.104163    56.190618 
  146000    302.41942   -11405.979            0   -10505.426    3739.0691    753.31569    9.0989722    9.0989722    9.0989722    62.954281 
  146100    309.96011    -11439.02            0   -10516.012    9004.0078    752.09243    9.0940445    9.0940445    9.0940445    45.497057 
  146200    301.56696   -11423.954            0    -10525.94    2953.6487    751.32313    9.0909427    9.0909427    9.0909427    54.707563 
  146300     299.2968   -11425.988            0   -10534.733    17417.077    750.78533    9.0887731    9.0887731    9.0887731    57.894718 
  146400    289.92021   -11403.699            0   -10540.367    11254.881    750.70527      9.08845      9.08845      9.08845    60.320559 
  146500    292.43301   -11414.727            0   -10543.911    3909.3886    750.95054    9.0894397    9.0894397    9.0894397    50.179356 
  146600    294.89866   -11423.129            0   -10544.971    3875.2873     751.4432    9.0914269    9.0914269    9.0914269    50.953483 
  146700    293.64971   -11420.282            0   -10545.844   -11106.596    751.71819    9.0925358    9.0925358    9.0925358    59.347764 
  146800    296.42336   -11427.479            0    -10544.78   -4523.5091    751.64317    9.0922333    9.0922333    9.0922333    48.945642 
  146900    291.59915   -11411.351            0   -10543.019    14205.613    751.57184    9.0919457    9.0919457    9.0919457    53.755182 
  147000    296.05912   -11423.081            0   -10541.468    -4028.118    751.86283    9.0931189    9.0931189    9.0931189      54.9316 
  147100    285.79944   -11389.451            0   -10538.389   -853.28862    752.00697       9.0937       9.0937       9.0937    56.841233 
  147200    287.66376   -11391.422            0   -10534.809     2162.004    752.26481    9.0947392    9.0947392    9.0947392    54.056432 
  147300    301.64731   -11430.921            0   -10532.667    -10930.28    752.45074    9.0954884    9.0954884    9.0954884     64.05542 
  147400    301.35955   -11424.912            0   -10527.515   -2610.6534    752.65347    9.0963052    9.0963052    9.0963052    53.120787 
  147500    299.92835   -11416.138            0   -10523.003    12903.083    752.93306    9.0974314    9.0974314    9.0974314    58.430349 
  147600    294.96757   -11393.897            0   -10515.534    10858.018    753.54841    9.0999091    9.0999091    9.0999091     61.49864 
  147700    295.22782   -11387.813            0   -10508.675   -10998.489    754.43551    9.1034785    9.1034785    9.1034785    57.147937 
  147800    303.65722   -11406.477            0   -10502.238   -4343.0107    754.88726    9.1052952    9.1052952    9.1052952    45.736301 
  147900    301.68673   -11393.823            0   -10495.452   -14084.955    754.66928    9.1044187    9.1044187    9.1044187    47.472703 
  148000    306.67872   -11401.372            0   -10488.135   -7356.4832    753.94825    9.1015183    9.1015183    9.1015183    47.043368 
  148100    296.99145   -11367.355            0   -10482.965    3214.9784    753.23074    9.0986301    9.0986301    9.0986301    65.380694 
  148200    305.16405   -11387.513            0   -10478.786    2042.5108    752.88159    9.0972241    9.0972241    9.0972241    61.210808 
  148300    306.55794   -11387.664            0   -10474.786    13756.311    752.65088    9.0962948    9.0962948    9.0962948    44.457715 
  148400    302.81575   -11372.717            0   -10470.984   -3881.1479    752.85441    9.0971146    9.0971146    9.0971146    48.914249 
  148500    305.00566   -11376.565            0    -10468.31    16017.043    753.22696    9.0986149    9.0986149    9.0986149    57.946979 
  148600    295.36553   -11343.455            0   -10463.907   -2415.5742    753.88678    9.1012709    9.1012709    9.1012709    58.099243 
  148700    296.85462   -11347.063            0   -10463.081    9091.4778    754.44651    9.1035228    9.1035228    9.1035228     47.81372 
  148800      304.373   -11369.347            0   -10462.977    4652.5517    754.94108    9.1055116    9.1055116    9.1055116     62.38891 
  148900    308.77895   -11384.452            0   -10464.961    -6256.041    755.46886     9.107633     9.107633     9.107633    52.194519 
  149000    302.62841   -11369.682            0   -10468.506   -15964.059    755.99107    9.1097311    9.1097311    9.1097311    54.215192 
  149100    299.85226   -11367.035            0   -10474.126    2279.6494    755.93551    9.1095079    9.1095079    9.1095079    51.184345 
  149200     301.3856   -11379.298            0   -10481.824   -17793.126    755.50813    9.1077908    9.1077908    9.1077908    68.973942 
  149300    311.84809   -11421.395            0   -10492.764   -24788.344    754.64114    9.1043056    9.1043056    9.1043056    47.561526 
  149400     288.6766   -11362.631            0   -10503.001    2903.8994    753.11038    9.0981455    9.0981455    9.0981455    46.480738 
  149500    298.49411   -11403.449            0   -10514.584   -9285.2788    751.47369    9.0915499    9.0915499    9.0915499    62.606524 
  149600    297.52378   -11409.148            0   -10523.173    757.38932    749.95062    9.0854035    9.0854035    9.0854035    52.068082 
  149700    300.60124   -11426.051            0   -10530.912    17496.662     749.1242    9.0820651    9.0820651    9.0820651    50.418985 
  149800    301.71709   -11436.822            0    -10538.36    21169.894    748.92357    9.0812542    9.0812542    9.0812542    69.604162 
  149900    291.99419   -11411.162            0   -10541.654    4160.5356    749.40554    9.0832019    9.0832019    9.0832019    48.038362 
  150000    298.84389   -11435.568            0   -10545.662    21182.721    750.52266     9.087713     9.087713     9.087713    53.001862 
  150100    296.90512   -11431.892            0   -10547.759   -6086.3422    752.52141    9.0957731    9.0957731    9.0957731    51.547608 
  150200    285.34087   -11397.419            0   -10547.722   -1478.8922    754.81649    9.1050107    9.1050107    9.1050107    67.551329 
  150300    286.08761   -11398.371            0   -10546.451   -13931.449    756.67712    9.1124859    9.1124859    9.1124859    57.315407 
  150400    297.53669   -11430.065            0   -10544.052    -7136.428    757.35967    9.1152249    9.1152249    9.1152249    57.943355 
  150500    288.43655   -11397.724            0   -10538.809   -17737.774    756.95363    9.1135957    9.1135957    9.1135957    59.884074 
  150600     294.1956   -11408.658            0   -10532.594   -3508.9054     755.4588    9.1075926    9.1075926    9.1075926    56.998584 
  150700    299.45884   -11414.606            0   -10522.868   -1105.1797     753.5307    9.0998378    9.0998378    9.0998378    55.856205 
  150800    300.78577   -11405.554            0   -10509.866    12876.679     751.6884    9.0924157    9.0924157    9.0924157     65.42019 
  150900     291.6323    -11364.02            0   -10495.589    19439.199     750.3864     9.087163     9.087163     9.087163    61.848139 
  151000     297.8885   -11371.925            0   -10484.864    11092.398    749.96548    9.0854636    9.0854636    9.0854636    63.857968 
  151100     307.5985   -11390.148            0   -10474.172    25938.633    750.62859    9.0881405    9.0881405    9.0881405    46.397795 
  151200    300.43701   -11363.407            0   -10468.756    17327.367    752.47975    9.0956053    9.0956053    9.0956053    54.679558 
  151300    308.20879   -11383.621            0   -10465.828   -12349.354    755.12166    9.1062376    9.1062376    9.1062376    63.796554 
  151400    309.19423   -11386.321            0   -10465.594   -14917.244    757.72677    9.1166975    9.1166975    9.1166975    41.984001 
  151500    299.34782   -11354.699            0   -10463.292   -38671.546    759.59619    9.1241887    9.1241887    9.1241887    51.851665 
  151600     300.4909   -11358.769            0   -10463.958   -15916.374     759.8102    9.1250455    9.1250455    9.1250455    63.413302 
  151700    293.14053   -11337.937            0   -10465.014   -22048.684    758.82042    9.1210815    9.1210815    9.1210815    42.440916 
  151800    310.30237   -11391.702            0   -10467.674   -9619.4152    756.72863    9.1126926    9.1126926    9.1126926    60.225478 
  151900    306.31988   -11381.351            0   -10469.183     499.1172    754.00833      9.10176      9.10176      9.10176    58.660273 
  152000    297.32706   -11355.225            0   -10469.835    8481.7158    751.41084    9.0912964    9.0912964    9.0912964     60.25397 
  152100    300.51208   -11365.096            0   -10470.222    7596.8771    749.27803    9.0826867    9.0826867    9.0826867     52.82601 
  152200     298.6362   -11363.029            0   -10473.741    9374.2868    747.98594    9.0774628    9.0774628    9.0774628    44.963321 
  152300    305.72376   -11388.096            0   -10477.703    7843.9798    747.67586    9.0762082    9.0762082    9.0762082    36.518421 
  152400    299.22569   -11373.586            0   -10482.543    20515.135    748.55933    9.0797817    9.0797817    9.0797817    56.921231 
  152500    295.92531   -11370.209            0   -10488.994    8182.7083    750.50452    9.0876398    9.0876398    9.0876398    58.881286 
  152600    305.03501   -11406.957            0   -10498.615   -1404.2652    752.80463    9.0969141    9.0969141    9.0969141    56.721526 
  152700    297.40909    -11393.93            0   -10508.297   -4747.0163    755.15795    9.1063834    9.1063834    9.1063834    56.625655 
  152800    297.82747   -11405.261            0   -10518.381   -11285.209    757.08326    9.1141159    9.1141159    9.1141159    62.093923 
  152900    289.75211   -11391.702            0    -10528.87    -15247.45    758.06202    9.1180418    9.1180418    9.1180418    67.296254 
  153000    289.77353   -11400.995            0   -10538.099   -23561.767    757.69919    9.1165869    9.1165869    9.1165869    62.157513 
  153100    295.07466   -11426.324            0   -10547.642   -15608.399    755.95677    9.1095933    9.1095933    9.1095933    48.060894 
  153200    297.87086   -11442.354            0   -10555.345   -18037.536    753.15611    9.0983296    9.0983296    9.0983296    51.973396 
  153300    292.30062   -11429.876            0   -10559.454    7874.4317    749.77402    9.0846904    9.0846904    9.0846904    65.945041 
  153400    283.10273   -11404.023            0   -10560.991    19903.159    746.66685    9.0721236    9.0721236    9.0721236    60.476892 
  153500    295.77689   -11443.188            0   -10562.415    19516.248    744.60372    9.0637601    9.0637601    9.0637601    53.884582 
  153600    292.18005   -11432.247            0   -10562.185    34527.098    744.10373    9.0617309    9.0617309    9.0617309    63.216328 
  153700    293.66255   -11433.715            0   -10559.238    8942.4636    745.54071    9.0675603    9.0675603    9.0675603    58.818668 
  153800      287.372   -11409.743            0   -10553.998     8725.825    748.18146    9.0782537    9.0782537    9.0782537    51.259504 
  153900    301.75043   -11444.885            0   -10546.324   -13813.881     751.5031    9.0916685    9.0916685    9.0916685    60.708928 
  154000    292.43797   -11396.053            0   -10525.222   -19640.313    754.69298     9.104514     9.104514     9.104514    58.464074 
  154100    297.37091   -11383.816            0   -10498.297   -26061.384     757.1015    9.1141891    9.1141891    9.1141891    56.653433 
  154200    311.33353   -11407.208            0    -10480.11   -21086.114    758.40694    9.1194245    9.1194245    9.1194245    69.369326 
  154300    311.09195   -11393.079            0     -10466.7   -20674.515      758.592    9.1201662    9.1201662    9.1201662    61.962157 
  154400    299.90223   -11352.276            0   -10459.218   -22486.111    757.59836    9.1161825    9.1161825    9.1161825    54.473614 
  154500    310.35916   -11378.472            0   -10454.276   -4399.6322    755.35315     9.107168     9.107168     9.107168    57.379361 
  154600    321.12577   -11409.454            0   -10453.196    20291.714     752.7613    9.0967396    9.0967396    9.0967396    46.776159 
  154700    312.45527   -11381.992            0   -10451.554    23604.479    750.86244    9.0890842    9.0890842    9.0890842     59.56819 
  154800    312.97238   -11385.297            0   -10453.319    11712.061    750.06914    9.0858822    9.0858822    9.0858822    59.561328 
  154900    309.64775   -11381.003            0   -10458.925    16813.971    750.49452    9.0875994    9.0875994    9.0875994    65.722847 
  155000    314.16156   -11401.119            0     -10465.6    12617.085    751.71559    9.0925253    9.0925253    9.0925253    46.747669 
  155100    303.07759   -11375.523            0   -10473.009    1266.6376    753.32693    9.0990174    9.0990174    9.0990174    56.493044 
  155200    310.88425    -11407.34            0    -10481.58   -12551.815    755.13916    9.1063079    9.1063079    9.1063079    59.568489 
  155300    301.64365   -11389.468            0   -10491.225   -20985.837    756.47432    9.1116717    9.1116717    9.1116717    72.096392 
  155400    287.32709   -11354.589            0   -10498.978   -8726.5559    756.60925    9.1122134    9.1122134    9.1122134    51.395901 
  155500    297.44811   -11394.182            0   -10508.433   -9134.9404    755.85125    9.1091694    9.1091694    9.1091694     65.29085 
  155600    312.07423   -11447.744            0    -10518.44   -7616.7022    754.72576    9.1046459    9.1046459    9.1046459    60.099895 
  155700    302.61433   -11424.633            0   -10523.499   -9358.9963     752.8702    9.0971782    9.0971782    9.0971782    43.504554 
  155800    300.69359   -11425.211            0   -10529.797    905.53865    750.50302    9.0876337    9.0876337    9.0876337    61.991599 
  155900    298.46171   -11423.925            0   -10535.157    10213.387    748.59788    9.0799376    9.0799376    9.0799376    64.556662 
  156000    304.76314   -11448.852            0   -10541.319    19493.728    747.71045    9.0763482    9.0763482    9.0763482    48.129196 
  156100    300.06622   -11437.865            0   -10544.319    22818.382    748.16194    9.0781747    9.0781747    9.0781747    50.840359 
  156200    287.84779   -11405.099            0   -10547.937     10566.33    749.72481    9.0844916    9.0844916    9.0844916    73.924227 
  156300     289.0329   -11413.189            0   -10552.499   -1586.9292    751.99341    9.0936453    9.0936453    9.0936453    51.976203 
  156400    292.16538   -11424.723            0   -10554.704   -21956.973    754.11767       9.1022       9.1022       9.1022    64.865986 
  156500    288.26167   -11415.181            0   -10556.787   -6645.6425    755.65743    9.1083907    9.1083907    9.1083907     63.70838 
  156600    285.77654   -11406.549            0   -10555.556   -17649.855    756.21859    9.1106448    9.1106448    9.1106448    53.866149 
  156700    287.06675   -11409.001            0   -10554.165   -26495.361    755.65683    9.1083883    9.1083883    9.1083883    52.607904 
  156800    299.87612   -11443.824            0   -10550.844   -2215.8477    754.18556    9.1024731    9.1024731    9.1024731    65.943872 
  156900    287.97864   -11400.541            0   -10542.989     4018.252      752.275    9.0947803    9.0947803    9.0947803    59.248243 
  157000    311.54289   -11459.374            0   -10531.653    9880.7902    750.36038     9.087058     9.087058     9.087058    66.674682 
Loop time of 1902.59 on 16 procs for 100000 steps with 1000 atoms

Performance: 4.541 ns/day, 5.285 hours/ns, 52.560 timesteps/s
94.7% CPU use with 16 MPI tasks x no OpenMP threads

MPI task timing breakdown:
Section |  min time  |  avg time  |  max time  |%varavg| %total
---------------------------------------------------------------
Pair    | 143.18     | 173.07     | 232.87     | 159.8 |  9.10
Neigh   | 56.822     | 64.14      | 82.261     |  72.0 |  3.37
Comm    | 37.784     | 115.66     | 152.88     | 247.8 |  6.08
Output  | 1037.2     | 1069.4     | 1546.3     | 376.6 | 56.21
Modify  | 2.5177     | 479.62     | 511.88     | 562.5 | 25.21
Other   |            | 0.7299     |            |       |  0.04

Nlocal:    62.5 ave 68 max 56 min
Histogram: 2 1 2 0 1 3 1 2 0 4
Nghost:    1916.88 ave 1940 max 1888 min
Histogram: 2 0 1 3 2 0 2 2 1 3
Neighs:    0 ave 0 max 0 min
Histogram: 16 0 0 0 0 0 0 0 0 0
FullNghs:  19680.4 ave 22094 max 17175 min
Histogram: 3 0 2 1 3 0 1 3 1 2

Total # of neighbors = 314886
Ave neighs/atom = 314.886
Neighbor list builds = 100000
Dangerous builds not checked
Total wall time: 0:52:18
