LAMMPS (16 Mar 2018)
Reading data file ...
  orthogonal box = (-4.74906 -4.74906 -4.74906) to (4.74906 4.74906 4.74906)
  2 by 2 by 4 MPI processor grid
  reading atoms ...
  1000 atoms
Reading potential file /home/fs01/ajm529/lammps-16Mar18/potentials/sw_potentials/AG/eps2.23.sw with DATE: 2008-01-29
Neighbor list info ...
  update every 1 steps, delay 0 steps, check no
  max neighbors/atom: 2000, page size: 100000
  master list distance cutoff = 3.836
  ghost atom cutoff = 3.836
  binsize = 1.918, bins = 5 5 5
  1 neighbor lists, perpetual/occasional/extra = 1 0 0
  (1) pair sw, perpetual
      attributes: full, newton on
      pair build: full/bin/atomonly
      stencil: full/bin/3d
      bin: standard
Setting up Verlet run ...
  Unit style    : real
  Current step  : 0
  Time step     : 1
Per MPI rank memory allocation (min/avg/max) = 3.517 | 3.519 | 3.52 Mbytes
Step Temp E_pair E_mol TotEng Press Volume Lx Ly Lz S/CPU 
       0          300   -10060.145            0   -9166.7965    -47344.41    856.86817    9.4981277    9.4981277    9.4981277            0 
     100    330.20434   -10157.007            0   -9173.7149   -54534.501    854.52218    9.4894516    9.4894516    9.4894516    38.551109 
     200    329.00519   -10170.323            0   -9190.6013   -50328.706     847.7069    9.4641563    9.4641563    9.4641563    58.735121 
     300    330.79177   -10200.929            0   -9215.8877   -35419.162    837.41451    9.4256974    9.4256974    9.4256974    53.721263 
     400    333.09875   -10233.328            0   -9241.4173   -25550.164    825.35573    9.3802351    9.3802351    9.3802351    52.787918 
     500    337.17674    -10266.28            0   -9262.2254   -16166.228    813.21698    9.3340218    9.3340218    9.3340218    68.710358 
     600    340.27043   -10291.997            0   -9278.7296      19033.1    802.90703    9.2944084    9.2944084    9.2944084    59.774041 
     700    331.47802   -10282.124            0   -9295.0387    5718.3855    795.79642    9.2668897    9.2668897    9.2668897    59.702441 
     800     335.2352   -10312.456            0   -9314.1826    24374.053    791.18896    9.2489707    9.2489707    9.2489707    60.024865 
     900    326.98135   -10308.555            0   -9334.8603    14851.545    788.78377     9.239589     9.239589     9.239589      63.0192 
    1000    326.71397   -10330.741            0   -9357.8427    22999.158    787.91481    9.2361949    9.2361949    9.2361949    63.284671 
Loop time of 17.6887 on 16 procs for 1000 steps with 1000 atoms

Performance: 4.884 ns/day, 4.914 hours/ns, 56.533 timesteps/s
94.7% CPU use with 16 MPI tasks x no OpenMP threads

MPI task timing breakdown:
Section |  min time  |  avg time  |  max time  |%varavg| %total
---------------------------------------------------------------
Pair    | 1.5354     | 1.6744     | 2.2539     |  14.5 |  9.47
Neigh   | 0.58091    | 0.61898    | 0.8065     |   7.7 |  3.50
Comm    | 0.39252    | 1.1583     | 1.3357     |  23.0 |  6.55
Output  | 9.5281     | 9.8234     | 14.205     |  36.1 | 55.53
Modify  | 0.022461   | 4.4067     | 4.7036     |  53.9 | 24.91
Other   |            | 0.006955   |            |       |  0.04

Nlocal:    62.5 ave 67 max 59 min
Histogram: 1 5 1 2 0 2 0 1 3 1
Nghost:    1846.88 ave 1865 max 1829 min
Histogram: 2 1 2 2 1 2 1 2 1 2
Neighs:    0 ave 0 max 0 min
Histogram: 16 0 0 0 0 0 0 0 0 0
FullNghs:  18736.5 ave 20310 max 17750 min
Histogram: 6 0 1 2 2 0 1 0 3 1

Total # of neighbors = 299784
Ave neighs/atom = 299.784
Neighbor list builds = 1000
Dangerous builds not checked
Setting up Verlet run ...
  Unit style    : real
  Current step  : 1000
  Time step     : 1
Per MPI rank memory allocation (min/avg/max) = 3.52 | 4.411 | 4.579 Mbytes
Step Temp E_pair E_mol TotEng Press Volume Lx Ly Lz S/CPU 
    1000    326.71397   -10330.741            0   -9357.8427    22999.158    787.91481    9.2361949    9.2361949    9.2361949            0 
    1100    325.88225   -10350.878            0   -9380.4562    21281.844    788.02572    9.2366282    9.2366282    9.2366282    43.408417 
    1200    323.78847   -10366.729            0   -9402.5419    1298.2055    788.97432     9.240333     9.240333     9.240333    62.295659 
    1300    329.61327   -10405.621            0   -9424.0893     2012.837    790.37257    9.2457885    9.2457885    9.2457885    64.086176 
    1400    313.42945   -10378.021            0   -9444.6812    5528.7856    791.98992    9.2520907    9.2520907    9.2520907    52.956052 
    1500     314.9901   -10401.456            0   -9463.4691   -6857.8139      793.406    9.2576017    9.2576017    9.2576017      64.7705 
    1600    321.50028   -10439.077            0   -9481.7044   -2538.6518    794.30926    9.2611136    9.2611136    9.2611136    54.815294 
    1700    317.41222    -10445.82            0    -9500.621   -44.622549    794.82164    9.2631044    9.2631044    9.2631044    49.376788 
    1800    301.57283    -10415.69            0   -9517.6577   -9052.8072    794.91175    9.2634545    9.2634545    9.2634545    65.241423 
    1900    310.81247   -10460.694            0   -9535.1479   -13842.266    794.23564    9.2608274    9.2608274    9.2608274    64.358402 
    2000    303.05386   -10452.514            0   -9550.0715   -472.56253    792.76088    9.2550919    9.2550919    9.2550919    46.752393 
Loop time of 17.9767 on 16 procs for 1000 steps with 1000 atoms

Performance: 4.806 ns/day, 4.994 hours/ns, 55.628 timesteps/s
94.8% CPU use with 16 MPI tasks x no OpenMP threads

MPI task timing breakdown:
Section |  min time  |  avg time  |  max time  |%varavg| %total
---------------------------------------------------------------
Pair    | 1.6779     | 1.7863     | 2.3962     |  16.5 |  9.94
Neigh   | 0.59463    | 0.62858    | 0.81492    |   8.5 |  3.50
Comm    | 0.45254    | 1.2477     | 1.3894     |  25.7 |  6.94
Output  | 9.9208     | 10.196     | 14.282     |  33.0 | 56.72
Modify  | 0.0228     | 4.1108     | 4.3877     |  52.1 | 22.87
Other   |            | 0.006975   |            |       |  0.04

Nlocal:    62.5 ave 71 max 56 min
Histogram: 1 1 3 2 4 0 4 0 0 1
Nghost:    1833 ave 1885 max 1788 min
Histogram: 1 2 1 3 3 1 0 4 0 1
Neighs:    0 ave 0 max 0 min
Histogram: 16 0 0 0 0 0 0 0 0 0
FullNghs:  18648.8 ave 21416 max 16665 min
Histogram: 2 2 2 1 3 1 4 0 0 1

Total # of neighbors = 298380
Ave neighs/atom = 298.38
Neighbor list builds = 1000
Dangerous builds not checked
Setting up Verlet run ...
  Unit style    : real
  Current step  : 2000
  Time step     : 1
Per MPI rank memory allocation (min/avg/max) = 4.576 | 4.578 | 4.579 Mbytes
Step Temp E_pair E_mol TotEng Press Volume Lx Ly Lz S/CPU 
    2000    303.05386   -10452.514            0   -9550.0715   -472.56253    792.76088    9.2550919    9.2550919    9.2550919            0 
    2100    289.15131   -10426.402            0   -9565.3591   -11263.782    790.93078    9.2479646    9.2479646    9.2479646    59.822276 
    2200    293.37612   -10452.006            0   -9578.3818   -6728.6948    788.40399    9.2381059    9.2381059    9.2381059    52.607793 
    2300    297.10582   -10476.062            0   -9591.3312    24523.352    785.76696    9.2277947    9.2277947    9.2277947    44.964069 
    2400    307.68002   -10519.212            0   -9602.9931    5915.0774    783.91168    9.2205263    9.2205263    9.2205263     55.16704 
    2500    295.35425   -10491.191            0   -9611.6762    16605.342    782.66673    9.2156426    9.2156426    9.2156426     58.29043 
    2600    299.78371    -10513.79            0   -9621.0858    4850.6412    782.46469    9.2148495    9.2148495    9.2148495    52.790456 
    2700    288.74815   -10488.068            0   -9628.2254    8293.3473    782.72607    9.2158755    9.2158755    9.2158755    59.971389 
    2800    294.49324   -10511.426            0   -9634.4759     -9799.81    783.10567    9.2173651    9.2173651    9.2173651    59.715259 
    2900    288.40626   -10498.472            0   -9639.6474   -911.35265    783.05484    9.2171657    9.2171657    9.2171657    64.872281 
    3000    290.72723   -10509.112            0   -9643.3762    11556.087    782.51836    9.2150602    9.2150602    9.2150602     45.09209 
Loop time of 18.3203 on 16 procs for 1000 steps with 1000 atoms

Performance: 4.716 ns/day, 5.089 hours/ns, 54.584 timesteps/s
94.8% CPU use with 16 MPI tasks x no OpenMP threads

MPI task timing breakdown:
Section |  min time  |  avg time  |  max time  |%varavg| %total
---------------------------------------------------------------
Pair    | 1.6178     | 1.803      | 2.6722     |  18.0 |  9.84
Neigh   | 0.57796    | 0.62688    | 0.86727    |   8.4 |  3.42
Comm    | 0.28794    | 1.3959     | 1.6297     |  26.0 |  7.62
Output  | 9.7742     | 10.07      | 14.461     |  35.7 | 54.97
Modify  | 0.023113   | 4.4173     | 4.7156     |  54.0 | 24.11
Other   |            | 0.006994   |            |       |  0.04

Nlocal:    62.5 ave 69 max 56 min
Histogram: 2 0 0 4 3 0 5 1 0 1
Nghost:    1862.62 ave 1874 max 1844 min
Histogram: 1 0 1 1 3 1 2 0 4 3
Neighs:    0 ave 0 max 0 min
Histogram: 16 0 0 0 0 0 0 0 0 0
FullNghs:  18859.5 ave 20725 max 16959 min
Histogram: 2 0 1 2 4 0 4 2 0 1

Total # of neighbors = 301752
Ave neighs/atom = 301.752
Neighbor list builds = 1000
Dangerous builds not checked
Setting up Verlet run ...
  Unit style    : real
  Current step  : 3000
  Time step     : 1
Per MPI rank memory allocation (min/avg/max) = 4.577 | 4.578 | 4.58 Mbytes
Step Temp E_pair E_mol TotEng Press Volume Lx Ly Lz S/CPU 
    3000    290.72723   -10509.112            0   -9643.3762    11556.087    782.51836    9.2150602    9.2150602    9.2150602            0 
    3100     298.8967   -10536.599            0   -9646.5355    12105.047     782.0507    9.2132241    9.2132241    9.2132241    58.871557 
    3200     286.5417   -10499.794            0   -9646.5216   -8206.7007    782.13583    9.2135584    9.2135584    9.2135584    61.080536 
    3300    287.38578   -10501.584            0   -9645.7981     1957.685    782.24431    9.2139844    9.2139844    9.2139844    48.940202 
    3400    291.52652   -10512.262            0   -9644.1457   -15682.418    782.37735    9.2145067    9.2145067    9.2145067    54.897341 
    3500    292.37502   -10511.477            0   -9640.8346   -5434.3933    782.21493     9.213869     9.213869     9.213869    68.271194 
    3600    293.77862   -10510.792            0   -9635.9692    -15538.99    781.88844    9.2125869    9.2125869    9.2125869    58.124675 
    3700    296.41872   -10512.769            0   -9630.0849   -12028.759    780.99526    9.2090776    9.2090776    9.2090776    61.479269 
    3800    310.50649   -10549.461            0   -9624.8252    1657.0008    779.73118    9.2041065    9.2041065    9.2041065    66.976619 
    3900    296.73594   -10501.427            0   -9617.7981     6763.776    778.70459    9.2000653    9.2000653    9.2000653    63.362567 
    4000    297.78691   -10498.528            0   -9611.7697   -1334.7858    778.21945    9.1981543    9.1981543    9.1981543    42.418329 
Loop time of 17.4412 on 16 procs for 1000 steps with 1000 atoms

Performance: 4.954 ns/day, 4.845 hours/ns, 57.335 timesteps/s
94.8% CPU use with 16 MPI tasks x no OpenMP threads

MPI task timing breakdown:
Section |  min time  |  avg time  |  max time  |%varavg| %total
---------------------------------------------------------------
Pair    | 1.67       | 1.8126     | 2.5244     |  15.4 | 10.39
Neigh   | 0.59238    | 0.6257     | 0.81614    |   7.0 |  3.59
Comm    | 0.3447     | 1.2462     | 1.4187     |  23.4 |  7.15
Output  | 9.1138     | 9.4049     | 13.724     |  36.4 | 53.92
Modify  | 0.023477   | 4.3449     | 4.6372     |  53.5 | 24.91
Other   |            | 0.006959   |            |       |  0.04

Nlocal:    62.5 ave 67 max 59 min
Histogram: 1 3 2 1 0 3 4 1 0 1
Nghost:    1867.19 ave 1883 max 1848 min
Histogram: 1 1 0 1 5 3 1 0 2 2
Neighs:    0 ave 0 max 0 min
Histogram: 16 0 0 0 0 0 0 0 0 0
FullNghs:  18958 ave 20312 max 17690 min
Histogram: 1 1 4 0 1 3 2 3 0 1

Total # of neighbors = 303328
Ave neighs/atom = 303.328
Neighbor list builds = 1000
Dangerous builds not checked
Setting up Verlet run ...
  Unit style    : real
  Current step  : 4000
  Time step     : 1
Per MPI rank memory allocation (min/avg/max) = 4.577 | 4.578 | 4.58 Mbytes
Step Temp E_pair E_mol TotEng Press Volume Lx Ly Lz S/CPU 
    4000    297.78691   -10498.528            0   -9611.7697   -1334.7858    778.21945    9.1981543    9.1981543    9.1981543            0 
    4100    299.85977   -10499.565            0   -9606.6336    6488.9876    778.33702    9.1986175    9.1986175    9.1986175    55.508176 
    4200    308.46622    -10520.15            0   -9601.5905    16665.299    778.79765    9.2004318    9.2004318    9.2004318    55.448971 
    4300    299.97904    -10489.32            0   -9596.0336    5913.5277    779.63263    9.2037187    9.2037187    9.2037187    53.334767 
    4400    301.97081   -10491.891            0   -9592.6737   -5130.5841    780.85364    9.2085209    9.2085209    9.2085209    54.697467 
    4500    308.62273   -10509.128            0   -9590.1018    8660.5453    782.22809    9.2139207    9.2139207    9.2139207    51.460471 
    4600    309.09762   -10508.199            0   -9587.7589    11022.572    784.23585    9.2217971    9.2217971    9.2217971    52.946411 
    4700    302.97321   -10487.647            0    -9585.445   -12151.097    786.73487     9.231582     9.231582     9.231582    51.093283 
    4800    307.23799   -10498.842            0   -9583.9401   -3536.7422    788.74453    9.2394358    9.2394358    9.2394358     58.73342 
    4900    308.21819   -10500.621            0   -9582.7999   -20530.768    790.53258    9.2464124    9.2464124    9.2464124    55.497291 
    5000    301.51652   -10479.665            0   -9581.8006   -9591.3825    791.50232    9.2501917    9.2501917    9.2501917    60.425982 
Loop time of 18.2568 on 16 procs for 1000 steps with 1000 atoms

Performance: 4.732 ns/day, 5.071 hours/ns, 54.774 timesteps/s
94.8% CPU use with 16 MPI tasks x no OpenMP threads

MPI task timing breakdown:
Section |  min time  |  avg time  |  max time  |%varavg| %total
---------------------------------------------------------------
Pair    | 1.6756     | 1.8221     | 2.5551     |  16.9 |  9.98
Neigh   | 0.59301    | 0.63215    | 0.84157    |   8.2 |  3.46
Comm    | 0.32339    | 1.265      | 1.4493     |  26.1 |  6.93
Output  | 10.007     | 10.291     | 14.505     |  33.9 | 56.37
Modify  | 0.023442   | 4.2394     | 4.5248     |  52.9 | 23.22
Other   |            | 0.006972   |            |       |  0.04

Nlocal:    62.5 ave 68 max 56 min
Histogram: 1 0 1 3 1 4 2 1 0 3
Nghost:    1840.62 ave 1862 max 1826 min
Histogram: 1 2 3 4 2 0 1 2 0 1
Neighs:    0 ave 0 max 0 min
Histogram: 16 0 0 0 0 0 0 0 0 0
FullNghs:  18657.8 ave 20578 max 16461 min
Histogram: 1 0 1 3 3 2 2 1 2 1

Total # of neighbors = 298524
Ave neighs/atom = 298.524
Neighbor list builds = 1000
Dangerous builds not checked
Setting up Verlet run ...
  Unit style    : real
  Current step  : 5000
  Time step     : 1
Per MPI rank memory allocation (min/avg/max) = 4.577 | 4.578 | 4.58 Mbytes
Step Temp E_pair E_mol TotEng Press Volume Lx Ly Lz S/CPU 
    5000    301.51652   -10479.665            0   -9581.8006   -9591.3825    791.50232    9.2501917    9.2501917    9.2501917            0 
    5100    297.05276   -10465.597            0   -9581.0247   -4224.0229    792.05878    9.2523589    9.2523589    9.2523589    65.522148 
    5200    297.46217   -10467.554            0   -9581.7627   -6437.6212    792.36689    9.2535585    9.2535585    9.2535585    56.514689 
    5300    295.71015    -10462.96            0   -9582.3856    -8817.525    792.42529    9.2537858    9.2537858    9.2537858    56.691443 
    5400    294.11567   -10460.415            0   -9584.5889   -7386.9771    791.79262    9.2513224    9.2513224    9.2513224    62.633782 
    5500     306.3751   -10497.616            0   -9585.2834    2493.0583    790.79057    9.2474181    9.2474181    9.2474181    66.079853 
    5600    299.02246   -10478.392            0   -9587.9537   -2312.2294    789.90579     9.243968     9.243968     9.243968    53.703209 
    5700    285.92234   -10441.792            0   -9590.3641   -18794.607    788.57671    9.2387805    9.2387805    9.2387805    64.802061 
    5800    300.99596   -10490.401            0   -9594.0863   -14124.176    786.43709    9.2304172    9.2304172    9.2304172    58.822886 
    5900      294.186   -10473.766            0   -9597.7305    7635.2341    783.74567    9.2198754    9.2198754    9.2198754    57.718996 
    6000    297.84307   -10487.759            0   -9600.8337   -11022.346    781.19987    9.2098817    9.2098817    9.2098817    62.836969 
Loop time of 16.5987 on 16 procs for 1000 steps with 1000 atoms

Performance: 5.205 ns/day, 4.611 hours/ns, 60.246 timesteps/s
94.8% CPU use with 16 MPI tasks x no OpenMP threads

MPI task timing breakdown:
Section |  min time  |  avg time  |  max time  |%varavg| %total
---------------------------------------------------------------
Pair    | 1.637      | 1.7773     | 2.3141     |  11.8 | 10.71
Neigh   | 0.59093    | 0.6264     | 0.79371    |   6.1 |  3.77
Comm    | 0.43214    | 1.1357     | 1.311      |  19.2 |  6.84
Output  | 8.6302     | 8.9097     | 13.028     |  35.6 | 53.68
Modify  | 0.023099   | 4.1426     | 4.4225     |  52.3 | 24.96
Other   |            | 0.006929   |            |       |  0.04

Nlocal:    62.5 ave 68 max 56 min
Histogram: 2 1 1 1 0 4 1 3 1 2
Nghost:    1862.62 ave 1881 max 1844 min
Histogram: 1 1 2 1 2 4 2 1 1 1
Neighs:    0 ave 0 max 0 min
Histogram: 16 0 0 0 0 0 0 0 0 0
FullNghs:  18905.8 ave 20693 max 16948 min
Histogram: 2 1 1 1 1 3 3 2 0 2

Total # of neighbors = 302492
Ave neighs/atom = 302.492
Neighbor list builds = 1000
Dangerous builds not checked
Setting up Verlet run ...
  Unit style    : real
  Current step  : 6000
  Time step     : 1
Per MPI rank memory allocation (min/avg/max) = 4.577 | 4.578 | 4.58 Mbytes
Step Temp E_pair E_mol TotEng Press Volume Lx Ly Lz S/CPU 
    6000    297.84307   -10487.759            0   -9600.8337   -11022.346    781.19987    9.2098817    9.2098817    9.2098817            0 
    6100    290.29223   -10469.388            0   -9604.9472     11909.69    779.27795    9.2023228    9.2023228    9.2023228    66.845358 
    6200    291.57008   -10476.886            0   -9608.6397    7681.0242    778.31263    9.1985215    9.1985215    9.1985215    67.751407 
    6300    292.37552   -10484.648            0   -9614.0038    6353.8063    778.00616     9.197314     9.197314     9.197314     45.02281 
    6400    287.45849   -10472.439            0   -9616.4364    9555.0332    778.42055    9.1989466    9.1989466    9.1989466    67.461426 
    6500    304.01441     -10525.7            0   -9620.3967    8417.5549    779.44214     9.202969     9.202969     9.202969    74.783805 
    6600    300.68586   -10518.428            0   -9623.0372    7058.1169    780.79742    9.2082999    9.2082999    9.2082999    43.835884 
    6700    297.22544   -10512.367            0   -9627.2801    3498.0251    782.52127    9.2150717    9.2150717    9.2150717    63.821595 
    6800    293.68426   -10505.588            0   -9631.0468   -3024.8102    784.33022     9.222167     9.222167     9.222167    61.834529 
    6900    299.98205    -10528.06            0   -9634.7643   -11922.894    785.77778     9.227837     9.227837     9.227837    44.491427 
    7000    297.71375   -10524.116            0   -9637.5749   -8696.0013     786.4987    9.2306582    9.2306582    9.2306582    52.953802 
Loop time of 17.614 on 16 procs for 1000 steps with 1000 atoms

Performance: 4.905 ns/day, 4.893 hours/ns, 56.773 timesteps/s
94.8% CPU use with 16 MPI tasks x no OpenMP threads

MPI task timing breakdown:
Section |  min time  |  avg time  |  max time  |%varavg| %total
---------------------------------------------------------------
Pair    | 1.6854     | 1.8045     | 2.3892     |  11.8 | 10.24
Neigh   | 0.58516    | 0.6235     | 0.79389    |   5.9 |  3.54
Comm    | 0.36959    | 1.1236     | 1.2834     |  19.2 |  6.38
Output  | 9.5035     | 9.7894     | 14.031     |  35.0 | 55.58
Modify  | 0.022529   | 4.266      | 4.5529     |  53.0 | 24.22
Other   |            | 0.006952   |            |       |  0.04

Nlocal:    62.5 ave 68 max 58 min
Histogram: 2 2 1 0 3 3 0 2 1 2
Nghost:    1851.69 ave 1874 max 1828 min
Histogram: 1 0 2 2 4 2 1 1 1 2
Neighs:    0 ave 0 max 0 min
Histogram: 16 0 0 0 0 0 0 0 0 0
FullNghs:  18757.8 ave 20504 max 17268 min
Histogram: 2 3 0 0 4 2 0 3 0 2

Total # of neighbors = 300124
Ave neighs/atom = 300.124
Neighbor list builds = 1000
Dangerous builds not checked
Setting up Verlet run ...
  Unit style    : real
  Current step  : 7000
  Time step     : 1
Per MPI rank memory allocation (min/avg/max) = 4.577 | 4.578 | 4.58 Mbytes
Step Temp E_pair E_mol TotEng Press Volume Lx Ly Lz S/CPU 
    7000    297.71375   -10524.116            0   -9637.5749   -8696.0013     786.4987    9.2306582    9.2306582    9.2306582            0 
    7100    282.30666   -10479.075            0   -9638.4141    3145.2998    786.43006    9.2303897    9.2303897    9.2303897    56.829156 
    7200    302.98904   -10542.279            0   -9640.0295   -5091.9104    786.12825    9.2292087    9.2292087    9.2292087    72.594392 
    7300    285.58635   -10489.445            0   -9639.0173   -3835.8685    785.74986    9.2277277    9.2277277    9.2277277    58.591238 
    7400    291.48467   -10506.308            0   -9638.3169   -6295.3057    785.23456    9.2257101    9.2257101    9.2257101    56.024309 
    7500    290.86232   -10501.964            0   -9635.8262   -5949.7399    784.52879    9.2229452    9.2229452    9.2229452    51.387114 
    7600    305.91396   -10543.004            0   -9632.0447   -1475.6772    783.92732    9.2205876    9.2205876    9.2205876    56.555688 
    7700    303.36831   -10529.458            0   -9626.0792    -4132.908    783.70026    9.2196973    9.2196973    9.2196973    64.349595 
    7800    302.28757   -10518.004            0   -9617.8436    5898.0069    783.67419    9.2195951    9.2195951    9.2195951    54.403208 
    7900    297.33714   -10493.163            0    -9607.744    6735.3774    784.04675    9.2210559    9.2210559    9.2210559    48.206983 
    8000    292.48191   -10467.876            0    -9596.915    7858.1684    784.85602    9.2242273    9.2242273    9.2242273    56.846659 
Loop time of 17.5687 on 16 procs for 1000 steps with 1000 atoms

Performance: 4.918 ns/day, 4.880 hours/ns, 56.919 timesteps/s
94.7% CPU use with 16 MPI tasks x no OpenMP threads

MPI task timing breakdown:
Section |  min time  |  avg time  |  max time  |%varavg| %total
---------------------------------------------------------------
Pair    | 1.6302     | 1.7669     | 2.2778     |  10.7 | 10.06
Neigh   | 0.58524    | 0.61775    | 0.76018    |   5.0 |  3.52
Comm    | 0.39713    | 1.0492     | 1.2176     |  17.6 |  5.97
Output  | 9.5964     | 9.8809     | 14.104     |  34.7 | 56.24
Modify  | 0.021973   | 4.2471     | 4.5329     |  52.9 | 24.17
Other   |            | 0.006906   |            |       |  0.04

Nlocal:    62.5 ave 69 max 55 min
Histogram: 2 0 0 3 0 6 1 1 1 2
Nghost:    1864.56 ave 1879 max 1837 min
Histogram: 1 0 0 1 2 2 2 2 3 3
Neighs:    0 ave 0 max 0 min
Histogram: 16 0 0 0 0 0 0 0 0 0
FullNghs:  18798.4 ave 20990 max 16487 min
Histogram: 2 0 0 3 1 6 0 2 0 2

Total # of neighbors = 300774
Ave neighs/atom = 300.774
Neighbor list builds = 1000
Dangerous builds not checked
Setting up Verlet run ...
  Unit style    : real
  Current step  : 8000
  Time step     : 1
Per MPI rank memory allocation (min/avg/max) = 4.577 | 4.578 | 4.58 Mbytes
Step Temp E_pair E_mol TotEng Press Volume Lx Ly Lz S/CPU 
    8000    292.48191   -10467.876            0    -9596.915    7858.1684    784.85602    9.2242273    9.2242273    9.2242273            0 
    8100    303.77188   -10491.787            0   -9587.2059   -3052.3891    786.19155    9.2294564    9.2294564    9.2294564     60.11746 
    8200    308.61701   -10495.294            0   -9576.2849   -5167.1531    787.46757     9.234447     9.234447     9.234447    65.752592 
    8300    307.98626    -10485.24            0   -9568.1092    2207.2141     788.4377    9.2382376    9.2382376    9.2382376    46.696942 
    8400    310.28627   -10485.675            0   -9561.6952   -4237.5715    789.09523     9.240805     9.240805     9.240805    46.281884 
    8500    299.83902   -10447.783            0    -9554.914   -17039.603     789.2405     9.241372     9.241372     9.241372    44.083382 
    8600    306.57121   -10465.489            0   -9552.5718   -192.77002    788.74328    9.2394309    9.2394309    9.2394309    42.875996 
    8700     308.1637   -10469.451            0   -9551.7917   -6880.4101    787.84025    9.2359035    9.2359035    9.2359035    57.113276 
    8800    307.30025   -10468.677            0   -9553.5891   -4233.1362     786.7622    9.2316889    9.2316889    9.2316889    51.209876 
    8900    310.51256   -10481.575            0   -9556.9213   -4975.7466    785.55776    9.2269756    9.2269756    9.2269756    47.566254 
    9000    299.23634   -10451.633            0   -9560.5585    2077.9706    784.15741    9.2214897    9.2214897    9.2214897     49.51169 
Loop time of 19.9129 on 16 procs for 1000 steps with 1000 atoms

Performance: 4.339 ns/day, 5.531 hours/ns, 50.219 timesteps/s
94.7% CPU use with 16 MPI tasks x no OpenMP threads

MPI task timing breakdown:
Section |  min time  |  avg time  |  max time  |%varavg| %total
---------------------------------------------------------------
Pair    | 1.5686     | 1.7639     | 2.4628     |  14.1 |  8.86
Neigh   | 0.56866    | 0.61726    | 0.79852    |   6.2 |  3.10
Comm    | 0.27548    | 1.154      | 1.3972     |  21.8 |  5.80
Output  | 11.258     | 11.579     | 16.345     |  36.2 | 58.15
Modify  | 0.022447   | 4.7919     | 5.1147     |  56.3 | 24.06
Other   |            | 0.006893   |            |       |  0.03

Nlocal:    62.5 ave 69 max 55 min
Histogram: 1 0 2 3 1 2 3 1 1 2
Nghost:    1861.31 ave 1878 max 1839 min
Histogram: 2 2 0 0 1 1 5 1 2 2
Neighs:    0 ave 0 max 0 min
Histogram: 16 0 0 0 0 0 0 0 0 0
FullNghs:  18814.1 ave 20785 max 16446 min
Histogram: 1 0 1 3 2 2 2 2 1 2

Total # of neighbors = 301026
Ave neighs/atom = 301.026
Neighbor list builds = 1000
Dangerous builds not checked
Setting up Verlet run ...
  Unit style    : real
  Current step  : 9000
  Time step     : 1
Per MPI rank memory allocation (min/avg/max) = 4.577 | 4.578 | 4.58 Mbytes
Step Temp E_pair E_mol TotEng Press Volume Lx Ly Lz S/CPU 
    9000    299.23634   -10451.633            0   -9560.5585    2077.9706    784.15741    9.2214897    9.2214897    9.2214897            0 
    9100    307.26811   -10482.477            0   -9567.4849    7346.8437    782.86999    9.2164403    9.2164403    9.2164403    47.260833 
    9200    314.91514   -10513.642            0   -9575.8788    13377.591    781.95144    9.2128343    9.2128343    9.2128343    64.416392 
    9300    316.33638   -10526.888            0   -9584.8921   -7076.9292    781.78541    9.2121822    9.2121822    9.2121822     70.36404 
    9400    315.55192   -10534.064            0   -9594.4044    8937.0875    782.06354    9.2132746    9.2132746    9.2132746    54.939506 
    9500    303.39665   -10506.487            0   -9603.0241    8635.6754    782.68558    9.2157166    9.2157166    9.2157166    46.752919 
    9600    303.20438    -10514.94            0   -9612.0488    3719.6787    783.68336     9.219631     9.219631     9.219631    60.512937 
    9700    285.13625   -10465.689            0    -9616.602   -6014.2941      784.785    9.2239491    9.2239491    9.2239491    56.135671 
    9800    301.81607   -10520.183            0   -9621.4261    367.76795    785.30352    9.2259801    9.2259801    9.2259801    50.793237 
    9900    295.50919   -10504.521            0   -9624.5456   -1891.6002    785.67862    9.2274488    9.2274488    9.2274488    56.858109 
   10000    295.15516   -10503.832            0   -9624.9104   -13397.406    785.48186    9.2266785    9.2266785    9.2266785    62.117125 
Loop time of 17.8199 on 16 procs for 1000 steps with 1000 atoms

Performance: 4.849 ns/day, 4.950 hours/ns, 56.117 timesteps/s
94.8% CPU use with 16 MPI tasks x no OpenMP threads

MPI task timing breakdown:
Section |  min time  |  avg time  |  max time  |%varavg| %total
---------------------------------------------------------------
Pair    | 1.672      | 1.8192     | 2.4247     |  14.7 | 10.21
Neigh   | 0.58787    | 0.63091    | 0.81571    |   7.6 |  3.54
Comm    | 0.41457    | 1.2039     | 1.3934     |  23.4 |  6.76
Output  | 9.3706     | 9.6712     | 14.134     |  37.1 | 54.27
Modify  | 0.022649   | 4.4877     | 4.7893     |  54.4 | 25.18
Other   |            | 0.006993   |            |       |  0.04

Nlocal:    62.5 ave 70 max 56 min
Histogram: 1 0 3 6 0 2 1 1 1 1
Nghost:    1846.69 ave 1869 max 1828 min
Histogram: 2 2 0 3 3 1 0 2 2 1
Neighs:    0 ave 0 max 0 min
Histogram: 16 0 0 0 0 0 0 0 0 0
FullNghs:  18780.6 ave 21331 max 16758 min
Histogram: 1 0 4 5 1 1 1 2 0 1

Total # of neighbors = 300490
Ave neighs/atom = 300.49
Neighbor list builds = 1000
Dangerous builds not checked
Setting up Verlet run ...
  Unit style    : real
  Current step  : 10000
  Time step     : 1
Per MPI rank memory allocation (min/avg/max) = 4.577 | 4.578 | 4.58 Mbytes
Step Temp E_pair E_mol TotEng Press Volume Lx Ly Lz S/CPU 
   10000    295.15516   -10503.832            0   -9624.9104   -13397.406    785.48186    9.2266785    9.2266785    9.2266785            0 
   10100    300.94262   -10522.561            0   -9626.4049    -927.2281    784.47514     9.222735     9.222735     9.222735    51.575871 
   10200    293.06246   -10498.606            0   -9625.9156    4329.4229    783.38488    9.2184604    9.2184604    9.2184604    63.156319 
   10300    296.49938   -10508.556            0   -9625.6311    6210.3282     782.5591    9.2152202    9.2152202    9.2152202    65.652766 
   10400    297.79737   -10510.883            0   -9624.0934    1850.2888    782.04913    9.2132179    9.2132179    9.2132179    51.802296 
   10500    295.80683   -10504.732            0     -9623.87      -3928.2    781.52029    9.2111408    9.2111408    9.2111408    57.114329 
   10600    290.20655   -10486.276            0   -9622.0905    5249.0367    780.81374    9.2083641    9.2083641    9.2083641    67.586428 
   10700    298.53997   -10508.102            0   -9619.1009   -1015.9091      779.964    9.2050225    9.2050225    9.2050225    43.597476 
   10800    306.57902    -10529.23            0   -9616.2903    17648.486    778.89766    9.2008256    9.2008256    9.2008256     54.53076 
   10900    299.99942   -10506.232            0   -9612.8852    7642.8665    778.19252    9.1980483    9.1980483    9.1980483     59.26205 
   11000    303.16525   -10511.393            0   -9608.6188    23538.173    777.69957    9.1961057    9.1961057    9.1961057    70.014047 
Loop time of 17.4496 on 16 procs for 1000 steps with 1000 atoms

Performance: 4.951 ns/day, 4.847 hours/ns, 57.308 timesteps/s
94.8% CPU use with 16 MPI tasks x no OpenMP threads

MPI task timing breakdown:
Section |  min time  |  avg time  |  max time  |%varavg| %total
---------------------------------------------------------------
Pair    | 1.6898     | 1.8362     | 2.548      |  15.7 | 10.52
Neigh   | 0.59056    | 0.63278    | 0.83858    |   8.0 |  3.63
Comm    | 0.36986    | 1.2868     | 1.4748     |  24.3 |  7.37
Output  | 9.1155     | 9.4026     | 13.662     |  35.9 | 53.88
Modify  | 0.023197   | 4.2842     | 4.5718     |  53.2 | 24.55
Other   |            | 0.007037   |            |       |  0.04

Nlocal:    62.5 ave 67 max 58 min
Histogram: 1 0 0 3 5 3 2 1 0 1
Nghost:    1878.56 ave 1898 max 1864 min
Histogram: 2 1 1 3 2 4 0 2 0 1
Neighs:    0 ave 0 max 0 min
Histogram: 16 0 0 0 0 0 0 0 0 0
FullNghs:  18978.4 ave 20532 max 17654 min
Histogram: 1 0 3 1 5 2 3 0 0 1

Total # of neighbors = 303654
Ave neighs/atom = 303.654
Neighbor list builds = 1000
Dangerous builds not checked
Setting up Verlet run ...
  Unit style    : real
  Current step  : 11000
  Time step     : 1
Per MPI rank memory allocation (min/avg/max) = 4.577 | 4.578 | 4.58 Mbytes
Step Temp E_pair E_mol TotEng Press Volume Lx Ly Lz S/CPU 
   11000    303.16525   -10511.393            0   -9608.6188    23538.173    777.69957    9.1961057    9.1961057    9.1961057            0 
   11100    304.54619   -10513.034            0   -9606.1476    13679.327      778.051    9.1974906    9.1974906    9.1974906    48.981068 
   11200    302.56183   -10505.026            0   -9604.0481   -3596.3167    778.86776    9.2007079    9.2007079    9.2007079    59.915769 
   11300    306.73623   -10515.314            0   -9601.9059   -712.22183    780.16152    9.2057994    9.2057994    9.2057994     55.55277 
   11400    300.62368   -10495.875            0   -9600.6692    13553.983    781.96252    9.2128778    9.2128778    9.2128778    49.907974 
   11500    302.88457   -10501.997            0   -9600.0583    12358.556    784.44271    9.2226079    9.2226079    9.2226079    55.232793 
   11600    306.43647   -10512.481            0   -9599.9654    1277.3433    787.40087    9.2341863    9.2341863    9.2341863    48.181495 
   11700    298.46139    -10487.99            0    -9599.223    6642.3826    790.32394    9.2455988    9.2455988    9.2455988    58.885817 
   11800    301.31805    -10496.55            0   -9599.2758   -17542.662    792.94534    9.2558097    9.2558097    9.2558097    49.966823 
   11900    307.18996   -10515.565            0   -9600.8061   -8691.6393    794.97845    9.2637136    9.2637136    9.2637136      49.2163 
   12000    291.83348    -10467.97            0   -9598.9401   -1681.0677     796.8431    9.2709507    9.2709507    9.2709507    61.699295 
Loop time of 18.7526 on 16 procs for 1000 steps with 1000 atoms

Performance: 4.607 ns/day, 5.209 hours/ns, 53.326 timesteps/s
94.8% CPU use with 16 MPI tasks x no OpenMP threads

MPI task timing breakdown:
Section |  min time  |  avg time  |  max time  |%varavg| %total
---------------------------------------------------------------
Pair    | 1.6411     | 1.8194     | 2.6324     |  19.2 |  9.70
Neigh   | 0.58854    | 0.63275    | 0.85355    |   8.6 |  3.37
Comm    | 0.36296    | 1.3961     | 1.601      |  27.7 |  7.44
Output  | 9.588      | 9.9211     | 14.872     |  40.6 | 52.91
Modify  | 0.023335   | 4.9762     | 5.3102     |  57.3 | 26.54
Other   |            | 0.006992   |            |       |  0.04

Nlocal:    62.5 ave 66 max 58 min
Histogram: 1 0 3 2 0 0 4 4 0 2
Nghost:    1841.19 ave 1852 max 1828 min
Histogram: 2 1 2 1 1 2 1 1 1 4
Neighs:    0 ave 0 max 0 min
Histogram: 16 0 0 0 0 0 0 0 0 0
FullNghs:  18525.4 ave 19589 max 17042 min
Histogram: 1 0 2 2 1 0 4 2 2 2

Total # of neighbors = 296406
Ave neighs/atom = 296.406
Neighbor list builds = 1000
Dangerous builds not checked
Setting up Verlet run ...
  Unit style    : real
  Current step  : 12000
  Time step     : 1
Per MPI rank memory allocation (min/avg/max) = 4.577 | 4.578 | 4.58 Mbytes
Step Temp E_pair E_mol TotEng Press Volume Lx Ly Lz S/CPU 
   12000    291.83348    -10467.97            0   -9598.9401   -1681.0677     796.8431    9.2709507    9.2709507    9.2709507            0 
   12100     292.8211   -10471.878            0   -9599.9068    -4961.501    798.70374     9.278161     9.278161     9.278161    53.191179 
   12200    301.07477   -10496.025            0   -9599.4757   -21892.625    800.15688    9.2837844    9.2837844    9.2837844    60.804693 
   12300    288.77021   -10456.392            0   -9596.4837   -16788.478    800.56607    9.2853667    9.2853667    9.2853667    58.727029 
   12400    293.30975   -10467.741            0    -9594.315   -18260.236    799.47765    9.2811568    9.2811568    9.2811568    54.482196 
   12500    285.81708   -10441.941            0   -9590.8266   -14302.702      796.731     9.270516     9.270516     9.270516    60.629197 
   12600    288.82649   -10445.262            0   -9585.1859   -1681.8717    792.91749    9.2557013    9.2557013    9.2557013    66.679402 
   12700    301.82204    -10478.52            0   -9579.7456   -6590.3304    788.69273    9.2392336    9.2392336    9.2392336     51.99101 
   12800    292.34596    -10441.92            0   -9571.3633    10385.747    784.39781    9.2224319    9.2224319    9.2224319    48.253903 
   12900    305.44174   -10472.629            0   -9563.0758    9104.9574    780.57166    9.2074124    9.2074124    9.2074124    56.832749 
   13000    299.75993   -10448.386            0   -9555.7518    13945.957    777.48754    9.1952699    9.1952699    9.1952699    66.059509 
Loop time of 17.4811 on 16 procs for 1000 steps with 1000 atoms

Performance: 4.942 ns/day, 4.856 hours/ns, 57.205 timesteps/s
94.9% CPU use with 16 MPI tasks x no OpenMP threads

MPI task timing breakdown:
Section |  min time  |  avg time  |  max time  |%varavg| %total
---------------------------------------------------------------
Pair    | 1.6465     | 1.7783     | 2.6468     |  18.7 | 10.17
Neigh   | 0.59367    | 0.62767    | 0.865      |   8.8 |  3.59
Comm    | 0.31087    | 1.4154     | 1.579      |  26.7 |  8.10
Output  | 9.3893     | 9.6572     | 13.627     |  33.0 | 55.24
Modify  | 0.023158   | 3.9955     | 4.2652     |  51.3 | 22.86
Other   |            | 0.007005   |            |       |  0.04

Nlocal:    62.5 ave 67 max 58 min
Histogram: 2 2 2 1 0 1 3 2 1 2
Nghost:    1865.69 ave 1879 max 1850 min
Histogram: 3 0 0 2 1 4 2 0 0 4
Neighs:    0 ave 0 max 0 min
Histogram: 16 0 0 0 0 0 0 0 0 0
FullNghs:  18990.8 ave 20505 max 17450 min
Histogram: 2 1 3 1 0 0 4 2 1 2

Total # of neighbors = 303852
Ave neighs/atom = 303.852
Neighbor list builds = 1000
Dangerous builds not checked
Setting up Verlet run ...
  Unit style    : real
  Current step  : 13000
  Time step     : 1
Per MPI rank memory allocation (min/avg/max) = 4.577 | 4.578 | 4.58 Mbytes
Step Temp E_pair E_mol TotEng Press Volume Lx Ly Lz S/CPU 
   13000    299.75993   -10448.386            0   -9555.7518    13945.957    777.48754    9.1952699    9.1952699    9.1952699            0 
   13100    303.82175   -10454.506            0   -9549.7769    19219.446    775.54066    9.1875883    9.1875883    9.1875883    56.495689 
   13200    303.56778   -10449.485            0   -9545.5122    18789.567    775.16457    9.1861029    9.1861029    9.1861029    60.936372 
   13300    300.63552   -10437.978            0   -9542.7372    10700.102    776.28906    9.1905427    9.1905427    9.1905427    58.421297 
   13400    310.40799   -10466.376            0   -9542.0341     15243.62    778.80703    9.2004687    9.2004687    9.2004687    53.988393 
   13500    305.92339   -10454.762            0   -9543.7744    16714.321    782.31906    9.2142778    9.2142778    9.2142778      60.1397 
   13600    300.17995   -10439.835            0   -9545.9505    5066.8071    786.64907    9.2312464    9.2312464    9.2312464    61.261654 
   13700    297.04956   -10433.551            0   -9548.9884   -4653.8607    790.77167    9.2473444    9.2473444    9.2473444    55.866637 
   13800    307.38867   -10469.055            0    -9553.704   -5433.1898    794.05773    9.2601359    9.2601359    9.2601359    50.056694 
   13900    290.79554    -10425.96            0   -9560.0204   -9698.1365    796.54675    9.2698013    9.2698013    9.2698013    64.374358 
   14000     294.2346       -10445            0   -9568.8195   -19473.044    798.09095    9.2757876    9.2757876    9.2757876    44.320415 
Loop time of 17.8677 on 16 procs for 1000 steps with 1000 atoms

Performance: 4.836 ns/day, 4.963 hours/ns, 55.967 timesteps/s
94.7% CPU use with 16 MPI tasks x no OpenMP threads

MPI task timing breakdown:
Section |  min time  |  avg time  |  max time  |%varavg| %total
---------------------------------------------------------------
Pair    | 1.6885     | 1.7797     | 2.4049     |  12.3 |  9.96
Neigh   | 0.59184    | 0.61765    | 0.79377    |   5.9 |  3.46
Comm    | 0.3298     | 1.1301     | 1.2469     |  19.8 |  6.32
Output  | 9.4311     | 9.7389     | 14.308     |  37.8 | 54.51
Modify  | 0.022566   | 4.5944     | 4.9035     |  55.1 | 25.71
Other   |            | 0.006996   |            |       |  0.04

Nlocal:    62.5 ave 68 max 58 min
Histogram: 1 2 2 1 2 2 2 1 2 1
Nghost:    1847.62 ave 1863 max 1833 min
Histogram: 2 1 0 4 1 0 3 3 1 1
Neighs:    0 ave 0 max 0 min
Histogram: 16 0 0 0 0 0 0 0 0 0
FullNghs:  18473.5 ave 20303 max 17052 min
Histogram: 1 3 1 2 3 1 1 3 0 1

Total # of neighbors = 295576
Ave neighs/atom = 295.576
Neighbor list builds = 1000
Dangerous builds not checked
Setting up Verlet run ...
  Unit style    : real
  Current step  : 14000
  Time step     : 1
Per MPI rank memory allocation (min/avg/max) = 4.577 | 4.578 | 4.58 Mbytes
Step Temp E_pair E_mol TotEng Press Volume Lx Ly Lz S/CPU 
   14000     294.2346       -10445            0   -9568.8195   -19473.044    798.09095    9.2757876    9.2757876    9.2757876            0 
   14100    295.53315   -10459.789            0   -9579.7414   -16713.298    798.36971    9.2768675    9.2768675    9.2768675    59.941323 
   14200    296.52731   -10475.008            0   -9592.0003   -15905.493    797.29406    9.2726993    9.2726993    9.2726993    56.560392 
   14300    304.81182   -10511.997            0   -9604.3191   -21204.261    794.92467    9.2635047    9.2635047    9.2635047    54.153099 
   14400    304.45951   -10523.746            0   -9617.1174   -7026.9999    791.60512    9.2505921    9.2505921    9.2505921    62.601118 
   14500    294.75093   -10503.759            0   -9626.0414   -15155.484    787.84302    9.2359143    9.2359143    9.2359143    46.668628 
   14600    303.67941   -10538.696            0    -9634.391    8669.8432    783.77635    9.2199957    9.2199957    9.2199957    42.596338 
   14700    295.02475   -10518.757            0   -9640.2235    19922.849    780.25871    9.2061817    9.2061817    9.2061817    57.495454 
   14800    294.90813   -10520.435            0   -9642.2492    23633.266    778.12262    9.1977729    9.1977729    9.1977729    53.884291 
   14900    305.08209   -10554.621            0   -9646.1383    28384.738    777.28261    9.1944619    9.1944619    9.1944619    47.110843 
   15000    305.59105   -10558.659            0   -9648.6614    17537.026    777.89613    9.1968804    9.1968804    9.1968804    55.994071 
Loop time of 18.8744 on 16 procs for 1000 steps with 1000 atoms

Performance: 4.578 ns/day, 5.243 hours/ns, 52.982 timesteps/s
94.7% CPU use with 16 MPI tasks x no OpenMP threads

MPI task timing breakdown:
Section |  min time  |  avg time  |  max time  |%varavg| %total
---------------------------------------------------------------
Pair    | 1.6231     | 1.7718     | 2.3572     |  12.5 |  9.39
Neigh   | 0.58656    | 0.62137    | 0.79128    |   6.1 |  3.29
Comm    | 0.42034    | 1.1742     | 1.3577     |  19.6 |  6.22
Output  | 10.254     | 10.571     | 15.275     |  37.4 | 56.01
Modify  | 0.022473   | 4.7289     | 5.0474     |  55.9 | 25.05
Other   |            | 0.006941   |            |       |  0.04

Nlocal:    62.5 ave 67 max 57 min
Histogram: 1 0 0 2 5 1 2 1 0 4
Nghost:    1875.62 ave 1891 max 1860 min
Histogram: 1 2 0 2 2 4 2 1 1 1
Neighs:    0 ave 0 max 0 min
Histogram: 16 0 0 0 0 0 0 0 0 0
FullNghs:  18984.8 ave 20474 max 17381 min
Histogram: 1 0 2 4 2 2 1 0 2 2

Total # of neighbors = 303756
Ave neighs/atom = 303.756
Neighbor list builds = 1000
Dangerous builds not checked
Setting up Verlet run ...
  Unit style    : real
  Current step  : 15000
  Time step     : 1
Per MPI rank memory allocation (min/avg/max) = 4.577 | 4.578 | 4.58 Mbytes
Step Temp E_pair E_mol TotEng Press Volume Lx Ly Lz S/CPU 
   15000    305.59105   -10558.659            0   -9648.6614    17537.026    777.89613    9.1968804    9.1968804    9.1968804            0 
   15100    299.24349   -10542.782            0   -9651.6861    1411.2741     779.5428    9.2033652    9.2033652    9.2033652    65.246825 
   15200     298.2909   -10541.956            0   -9653.6962    6552.7722    781.66318    9.2117021    9.2117021    9.2117021    59.241097 
   15300    298.65287   -10543.141            0   -9653.8042   -6460.5811    783.98947    9.2208313    9.2208313    9.2208313    49.539059 
   15400    299.76096   -10548.084            0   -9655.4475   -14610.632    786.11304    9.2291492    9.2291492    9.2291492    60.108626 
   15500    303.26821   -10556.426            0   -9653.3451    -2811.157    787.89573    9.2361203    9.2361203    9.2361203    56.090416 
   15600    290.81322   -10515.937            0   -9649.9447   -16261.337    788.96209    9.2402852    9.2402852    9.2402852    58.158166 
   15700    299.55054   -10538.592            0   -9646.5819   -11684.615     789.1353    9.2409614    9.2409614    9.2409614    52.577137 
   15800    302.42909    -10541.52            0   -9640.9382    -12118.72    788.86111     9.239891     9.239891     9.239891    58.397476 
   15900    290.88747   -10500.202            0   -9633.9885    2984.9639    788.21274    9.2373589    9.2373589    9.2373589    45.091877 
   16000    318.70604   -10575.744            0   -9626.6917   -29449.428    787.39734    9.2341725    9.2341725    9.2341725    50.107551 
Loop time of 18.233 on 16 procs for 1000 steps with 1000 atoms

Performance: 4.739 ns/day, 5.065 hours/ns, 54.846 timesteps/s
94.9% CPU use with 16 MPI tasks x no OpenMP threads

MPI task timing breakdown:
Section |  min time  |  avg time  |  max time  |%varavg| %total
---------------------------------------------------------------
Pair    | 1.6296     | 1.8287     | 2.6221     |  19.1 | 10.03
Neigh   | 0.58072    | 0.63594    | 0.8614     |   9.4 |  3.49
Comm    | 0.43595    | 1.4542     | 1.7084     |  27.6 |  7.98
Output  | 9.7631     | 10.049     | 14.281     |  34.5 | 55.11
Modify  | 0.023469   | 4.2585     | 4.5447     |  53.0 | 23.36
Other   |            | 0.007049   |            |       |  0.04

Nlocal:    62.5 ave 65 max 59 min
Histogram: 2 1 0 0 0 3 5 0 4 1
Nghost:    1838.06 ave 1857 max 1813 min
Histogram: 1 1 0 3 0 5 1 1 2 2
Neighs:    0 ave 0 max 0 min
Histogram: 16 0 0 0 0 0 0 0 0 0
FullNghs:  18721.2 ave 19509 max 17506 min
Histogram: 2 1 0 1 0 3 1 3 3 2

Total # of neighbors = 299540
Ave neighs/atom = 299.54
Neighbor list builds = 1000
Dangerous builds not checked
Setting up Verlet run ...
  Unit style    : real
  Current step  : 16000
  Time step     : 1
Per MPI rank memory allocation (min/avg/max) = 4.577 | 4.578 | 4.58 Mbytes
Step Temp E_pair E_mol TotEng Press Volume Lx Ly Lz S/CPU 
   16000    318.70604   -10575.744            0   -9626.6917   -29449.428    787.39734    9.2341725    9.2341725    9.2341725            0 
   16100     305.9783   -10527.015            0    -9615.864   -10156.036    785.85699    9.2281471    9.2281471    9.2281471    55.873702 
   16200    299.56518   -10494.224            0     -9602.17   -10758.093    783.94561    9.2206593    9.2206593    9.2206593    57.183291 
   16300    300.97453   -10481.609            0    -9585.358   -2575.0671    781.82489    9.2123373    9.2123373    9.2123373     41.53317 
   16400    308.26719   -10486.679            0    -9568.712    14008.118    779.98814    9.2051174    9.2051174    9.2051174    52.387725 
   16500    308.23808   -10474.611            0   -9556.7311    9077.4478    778.85395    9.2006535    9.2006535    9.2006535    51.390215 
   16600    296.25384   -10431.311            0   -9549.1178    13562.643    778.55973    9.1994948    9.1994948    9.1994948    60.049823 
   16700    300.54034   -10443.184            0    -9548.226    10950.867    779.21171     9.202062     9.202062     9.202062    58.014276 
   16800    300.25224    -10441.53            0   -9547.4299    18090.168     780.5781    9.2074377    9.2074377    9.2074377    63.865525 
   16900      309.768    -10471.66            0   -9549.2236    4194.8886    782.31618    9.2142665    9.2142665    9.2142665     44.07462 
   17000    305.15273   -10460.261            0   -9551.5683   -578.43626    784.51387    9.2228868    9.2228868    9.2228868    60.282944 
Loop time of 18.6835 on 16 procs for 1000 steps with 1000 atoms

Performance: 4.624 ns/day, 5.190 hours/ns, 53.523 timesteps/s
94.7% CPU use with 16 MPI tasks x no OpenMP threads

MPI task timing breakdown:
Section |  min time  |  avg time  |  max time  |%varavg| %total
---------------------------------------------------------------
Pair    | 1.7108     | 1.7995     | 2.2404     |   9.8 |  9.63
Neigh   | 0.59827    | 0.62225    | 0.76186    |   5.1 |  3.33
Comm    | 0.48849    | 1.0685     | 1.181      |  16.5 |  5.72
Output  | 10.028     | 10.352     | 15.162     |  38.6 | 55.41
Modify  | 0.022862   | 4.8346     | 5.1593     |  56.5 | 25.88
Other   |            | 0.006956   |            |       |  0.04

Nlocal:    62.5 ave 66 max 58 min
Histogram: 1 1 0 3 0 3 4 0 2 2
Nghost:    1863.75 ave 1878 max 1844 min
Histogram: 2 0 1 1 0 3 3 3 1 2
Neighs:    0 ave 0 max 0 min
Histogram: 16 0 0 0 0 0 0 0 0 0
FullNghs:  18793.9 ave 19938 max 17184 min
Histogram: 1 1 0 1 2 4 2 1 1 3

Total # of neighbors = 300702
Ave neighs/atom = 300.702
Neighbor list builds = 1000
Dangerous builds not checked
Setting up Verlet run ...
  Unit style    : real
  Current step  : 17000
  Time step     : 1
Per MPI rank memory allocation (min/avg/max) = 4.577 | 4.578 | 4.58 Mbytes
Step Temp E_pair E_mol TotEng Press Volume Lx Ly Lz S/CPU 
   17000    305.15273   -10460.261            0   -9551.5683   -578.43626    784.51387    9.2228868    9.2228868    9.2228868            0 
   17100     302.7798    -10456.17            0   -9554.5436   -7564.3785    786.55897     9.230894     9.230894     9.230894    60.334313 
   17200    298.72104   -10446.618            0   -9557.0775    6861.1703    788.47363    9.2383779    9.2383779    9.2383779    57.530893 
   17300    296.92198   -10443.112            0   -9558.9294    -3323.881    790.46764    9.2461592    9.2461592    9.2461592    73.808962 
   17400    300.35037   -10457.536            0   -9563.1442   -10822.337    791.88361    9.2516768    9.2516768    9.2516768    62.994551 
   17500      314.133   -10502.888            0   -9567.4539   -12032.566     792.1436    9.2526892    9.2526892    9.2526892    38.652938 
   17600    291.95597   -10439.237            0   -9569.8417    8178.1459    791.39754    9.2497835    9.2497835    9.2497835    61.347353 
   17700    308.12227   -10492.627            0    -9575.091    580.73711    790.08705     9.244675     9.244675     9.244675    52.652324 
   17800    310.76459   -10506.523            0   -9581.1194    -5642.476    788.55922    9.2387122    9.2387122    9.2387122    44.682058 
   17900    313.17311   -10519.675            0   -9587.0994    5064.6315    786.88276    9.2321604    9.2321604    9.2321604    65.667654 
   18000    295.58794   -10473.362            0   -9593.1518   -649.37501    785.36609    9.2262251    9.2262251    9.2262251    56.441983 
Loop time of 17.987 on 16 procs for 1000 steps with 1000 atoms

Performance: 4.803 ns/day, 4.996 hours/ns, 55.596 timesteps/s
94.7% CPU use with 16 MPI tasks x no OpenMP threads

MPI task timing breakdown:
Section |  min time  |  avg time  |  max time  |%varavg| %total
---------------------------------------------------------------
Pair    | 1.6381     | 1.7578     | 2.3032     |  11.3 |  9.77
Neigh   | 0.59028    | 0.61823    | 0.77141    |   5.4 |  3.44
Comm    | 0.34646    | 1.0438     | 1.1909     |  18.7 |  5.80
Output  | 9.4227     | 9.7452     | 14.536     |  39.6 | 54.18
Modify  | 0.022195   | 4.815      | 5.1388     |  56.4 | 26.77
Other   |            | 0.006904   |            |       |  0.04

Nlocal:    62.5 ave 69 max 55 min
Histogram: 2 0 0 2 2 3 3 2 0 2
Nghost:    1854.25 ave 1876 max 1840 min
Histogram: 2 3 1 1 3 4 1 0 0 1
Neighs:    0 ave 0 max 0 min
Histogram: 16 0 0 0 0 0 0 0 0 0
FullNghs:  18786.4 ave 20864 max 16589 min
Histogram: 2 0 2 0 3 4 2 1 0 2

Total # of neighbors = 300582
Ave neighs/atom = 300.582
Neighbor list builds = 1000
Dangerous builds not checked
Setting up Verlet run ...
  Unit style    : real
  Current step  : 18000
  Time step     : 1
Per MPI rank memory allocation (min/avg/max) = 4.577 | 4.578 | 4.58 Mbytes
Step Temp E_pair E_mol TotEng Press Volume Lx Ly Lz S/CPU 
   18000    295.58794   -10473.362            0   -9593.1518   -649.37501    785.36609    9.2262251    9.2262251    9.2262251            0 
   18100    295.31981   -10479.571            0   -9600.1592   -1037.3566     784.0779     9.221178     9.221178     9.221178    63.711326 
   18200    305.73292   -10518.947            0   -9608.5267   -3230.0479     783.0826    9.2172746    9.2172746    9.2172746    49.332046 
   18300    308.00035   -10534.293            0   -9617.1202    11172.049    782.34119    9.2143647    9.2143647    9.2143647     62.23919 
   18400    303.92267   -10530.869            0   -9625.8388   -12024.047    782.03522    9.2131634    9.2131634    9.2131634     57.80947 
   18500    300.06319   -10529.616            0   -9636.0787    1261.7609    781.55422    9.2112741    9.2112741    9.2112741    61.676036 
   18600    297.96736   -10531.427            0   -9644.1306    7952.6597    781.11977     9.209567     9.209567     9.209567    55.997529 
   18700     291.1565   -10519.011            0   -9651.9965    7067.5539    781.10238    9.2094986    9.2094986    9.2094986    52.868615 
   18800    295.42797   -10537.313            0   -9657.5793   -5241.8296    781.48782    9.2110132    9.2110132    9.2110132    53.266328 
   18900    288.77347   -10519.219            0   -9659.3011    1443.5892    781.69023    9.2118084    9.2118084    9.2118084    51.469479 
   19000    287.65666   -10516.832            0   -9660.2392    11907.889    781.35885    9.2105065    9.2105065    9.2105065      68.0033 
Loop time of 17.5227 on 16 procs for 1000 steps with 1000 atoms

Performance: 4.931 ns/day, 4.867 hours/ns, 57.069 timesteps/s
94.7% CPU use with 16 MPI tasks x no OpenMP threads

MPI task timing breakdown:
Section |  min time  |  avg time  |  max time  |%varavg| %total
---------------------------------------------------------------
Pair    | 1.642      | 1.7751     | 2.303      |  10.6 | 10.13
Neigh   | 0.59042    | 0.61679    | 0.75321    |   4.7 |  3.52
Comm    | 0.33556    | 0.99853    | 1.1583     |  17.7 |  5.70
Output  | 9.4417     | 9.7378     | 14.101     |  36.1 | 55.57
Modify  | 0.021621   | 4.3875     | 4.684      |  53.8 | 25.04
Other   |            | 0.006964   |            |       |  0.04

Nlocal:    62.5 ave 68 max 58 min
Histogram: 1 1 2 4 0 2 1 3 1 1
Nghost:    1862.69 ave 1873 max 1849 min
Histogram: 1 1 2 1 1 1 3 2 2 2
Neighs:    0 ave 0 max 0 min
Histogram: 16 0 0 0 0 0 0 0 0 0
FullNghs:  18891.4 ave 20471 max 17384 min
Histogram: 1 1 3 3 0 2 1 3 1 1

Total # of neighbors = 302262
Ave neighs/atom = 302.262
Neighbor list builds = 1000
Dangerous builds not checked
Setting up Verlet run ...
  Unit style    : real
  Current step  : 19000
  Time step     : 1
Per MPI rank memory allocation (min/avg/max) = 4.577 | 4.578 | 4.58 Mbytes
Step Temp E_pair E_mol TotEng Press Volume Lx Ly Lz S/CPU 
   19000    287.65666   -10516.832            0   -9660.2392    11907.889    781.35885    9.2105065    9.2105065    9.2105065            0 
   19100    296.66316   -10542.329            0   -9658.9164   -3091.2361    780.90685    9.2087301    9.2087301    9.2087301    55.009979 
   19200    294.46983   -10533.829            0   -9656.9484   -11733.428     780.4813     9.207057     9.207057     9.207057    45.684484 
   19300    300.86938   -10551.176            0   -9655.2381   -9157.1871    779.95633    9.2049923    9.2049923    9.2049923    61.702049 
   19400    283.26642   -10494.024            0   -9650.5054    3145.5873    778.91761    9.2009042    9.2009042    9.2009042    46.537003 
   19500    283.28134   -10490.587            0   -9647.0232   -7976.5297    778.00079    9.1972928    9.1972928    9.1972928    51.160625 
   19600    286.26279    -10493.64            0   -9641.1981   -5424.2492    777.06822    9.1936165    9.1936165    9.1936165    63.896961 
   19700    290.82311   -10502.734            0   -9636.7127    9609.6669    776.40475    9.1909992    9.1909992    9.1909992    50.331732 
   19800    296.39962   -10514.537            0   -9631.9091    7464.1543      776.384    9.1909173    9.1909173    9.1909173    45.724073 
   19900    298.91293   -10515.245            0   -9625.1338   -10846.662    776.87653    9.1928604    9.1928604    9.1928604    53.381751 
   20000    298.72198   -10508.127            0   -9618.5838    3583.0791     777.4514    9.1951274    9.1951274    9.1951274    53.769393 
Loop time of 19.2029 on 16 procs for 1000 steps with 1000 atoms

Performance: 4.499 ns/day, 5.334 hours/ns, 52.075 timesteps/s
94.7% CPU use with 16 MPI tasks x no OpenMP threads

MPI task timing breakdown:
Section |  min time  |  avg time  |  max time  |%varavg| %total
---------------------------------------------------------------
Pair    | 1.6864     | 1.8294     | 2.5222     |  14.2 |  9.53
Neigh   | 0.59632    | 0.62853    | 0.82331    |   6.8 |  3.27
Comm    | 0.31612    | 1.2026     | 1.3755     |  22.3 |  6.26
Output  | 10.382     | 10.706     | 15.511     |  37.9 | 55.75
Modify  | 0.022477   | 4.8298     | 5.1544     |  56.5 | 25.15
Other   |            | 0.007002   |            |       |  0.04

Nlocal:    62.5 ave 67 max 56 min
Histogram: 3 0 0 1 1 2 1 3 1 4
Nghost:    1871.62 ave 1902 max 1840 min
Histogram: 2 0 2 1 3 2 2 1 1 2
Neighs:    0 ave 0 max 0 min
Histogram: 16 0 0 0 0 0 0 0 0 0
FullNghs:  18986.6 ave 20438 max 16883 min
Histogram: 3 0 0 1 1 2 1 4 1 3

Total # of neighbors = 303786
Ave neighs/atom = 303.786
Neighbor list builds = 1000
Dangerous builds not checked
Setting up Verlet run ...
  Unit style    : real
  Current step  : 20000
  Time step     : 1
Per MPI rank memory allocation (min/avg/max) = 4.577 | 4.578 | 4.58 Mbytes
Step Temp E_pair E_mol TotEng Press Volume Lx Ly Lz S/CPU 
   20000    298.72198   -10508.127            0   -9618.5838    3583.0791     777.4514    9.1951274    9.1951274    9.1951274            0 
   20100     306.8236   -10527.561            0   -9613.8928    20926.163    778.43919      9.19902      9.19902      9.19902    50.072773 
   20200    293.79506   -10481.945            0   -9607.0734    1240.8595    780.29058     9.206307     9.206307     9.206307    57.454759 
   20300    299.14576    -10491.74            0   -9600.9346   -4674.6768    782.47761    9.2149003    9.2149003    9.2149003    51.784723 
   20400     305.2064   -10502.926            0   -9594.0739    2001.6572    785.05025    9.2249882    9.2249882    9.2249882    56.922662 
   20500    295.94407   -10468.627            0   -9587.3562    2458.2045    787.57025    9.2348484    9.2348484    9.2348484    52.227064 
   20600    302.30335    -10481.29            0    -9581.082   -596.99998    789.71635    9.2432289    9.2432289    9.2432289    38.274725 
   20700    299.30853   -10466.824            0   -9575.5342   -7285.4406    791.53145    9.2503051    9.2503051    9.2503051    46.790998 
   20800    301.39239   -10467.209            0   -9569.7135   -7995.3609    792.84367    9.2554141    9.2554141    9.2554141    52.015328 
   20900    308.81319   -10485.414            0   -9565.8207   -3636.6847    793.69105    9.2587103    9.2587103    9.2587103    53.259549 
   21000    300.22357   -10456.765            0   -9562.7503   -4399.2466     794.3751    9.2613694    9.2613694    9.2613694    54.136225 
Loop time of 19.7373 on 16 procs for 1000 steps with 1000 atoms

Performance: 4.377 ns/day, 5.483 hours/ns, 50.665 timesteps/s
94.8% CPU use with 16 MPI tasks x no OpenMP threads

MPI task timing breakdown:
Section |  min time  |  avg time  |  max time  |%varavg| %total
---------------------------------------------------------------
Pair    | 1.6664     | 1.8558     | 2.8019     |  20.6 |  9.40
Neigh   | 0.59431    | 0.64434    | 0.91606    |  10.0 |  3.26
Comm    | 0.33005    | 1.5475     | 1.7864     |  29.0 |  7.84
Output  | 10.588     | 10.908     | 15.656     |  37.1 | 55.26
Modify  | 0.024134   | 4.7751     | 5.0958     |  56.1 | 24.19
Other   |            | 0.007072   |            |       |  0.04

Nlocal:    62.5 ave 67 max 56 min
Histogram: 1 0 1 0 2 2 5 3 1 1
Nghost:    1842.19 ave 1853 max 1824 min
Histogram: 1 0 2 1 1 1 2 3 3 2
Neighs:    0 ave 0 max 0 min
Histogram: 16 0 0 0 0 0 0 0 0 0
FullNghs:  18568.9 ave 19937 max 16696 min
Histogram: 1 0 1 0 2 4 3 3 1 1

Total # of neighbors = 297102
Ave neighs/atom = 297.102
Neighbor list builds = 1000
Dangerous builds not checked
Setting up Verlet run ...
  Unit style    : real
  Current step  : 21000
  Time step     : 1
Per MPI rank memory allocation (min/avg/max) = 4.577 | 4.578 | 4.58 Mbytes
Step Temp E_pair E_mol TotEng Press Volume Lx Ly Lz S/CPU 
   21000    300.22357   -10456.765            0   -9562.7503   -4399.2466     794.3751    9.2613694    9.2613694    9.2613694            0 
   21100     301.0444   -10457.902            0   -9561.4437   -10278.976    794.73466    9.2627665    9.2627665    9.2627665    48.777159 
   21200    306.93743   -10476.233            0   -9562.2253     2996.864    794.56315    9.2621002    9.2621002    9.2621002    61.958338 
   21300    299.29282   -10454.962            0   -9563.7189   -6576.7279    794.28593    9.2610229    9.2610229    9.2610229    59.466739 
   21400    287.79735   -10420.657            0   -9563.6457     -12033.5    793.47777    9.2578809    9.2578809    9.2578809    46.991771 
   21500    304.85102   -10477.728            0   -9569.9336   -498.54475    792.27162    9.2531876    9.2531876    9.2531876    64.649337 
   21600    299.38967   -10467.115            0   -9575.5834   -2965.0128    790.79017    9.2474165    9.2474165    9.2474165    48.903209 
   21700    307.22533   -10500.689            0   -9585.8243   -5116.6658    789.01166    9.2404788    9.2404788    9.2404788    49.670591 
   21800    298.54334   -10487.559            0    -9598.548   -8260.9891    786.88383    9.2321646    9.2321646    9.2321646    63.867426 
   21900    299.51188   -10505.214            0   -9613.3185    13440.534    784.67087    9.2235019    9.2235019    9.2235019    53.827136 
   22000    287.83941   -10484.581            0   -9627.4441    17461.372    782.94996    9.2167541    9.2167541    9.2167541    48.657863 
Loop time of 18.5574 on 16 procs for 1000 steps with 1000 atoms

Performance: 4.656 ns/day, 5.155 hours/ns, 53.887 timesteps/s
94.6% CPU use with 16 MPI tasks x no OpenMP threads

MPI task timing breakdown:
Section |  min time  |  avg time  |  max time  |%varavg| %total
---------------------------------------------------------------
Pair    | 1.6161     | 1.7383     | 2.2884     |  11.2 |  9.37
Neigh   | 0.58118    | 0.61448    | 0.77437    |   5.4 |  3.31
Comm    | 0.36258    | 1.0716     | 1.2293     |  18.3 |  5.77
Output  | 10.024     | 10.344     | 15.102     |  38.2 | 55.74
Modify  | 0.022333   | 4.7818     | 5.1033     |  56.2 | 25.77
Other   |            | 0.006839   |            |       |  0.04

Nlocal:    62.5 ave 72 max 57 min
Histogram: 3 1 2 1 6 0 2 0 0 1
Nghost:    1875.81 ave 1907 max 1845 min
Histogram: 1 3 1 1 2 1 3 2 0 2
Neighs:    0 ave 0 max 0 min
Histogram: 16 0 0 0 0 0 0 0 0 0
FullNghs:  18851.6 ave 22053 max 17249 min
Histogram: 3 2 2 3 3 2 0 0 0 1

Total # of neighbors = 301626
Ave neighs/atom = 301.626
Neighbor list builds = 1000
Dangerous builds not checked
Setting up Verlet run ...
  Unit style    : real
  Current step  : 22000
  Time step     : 1
Per MPI rank memory allocation (min/avg/max) = 4.577 | 4.578 | 4.58 Mbytes
Step Temp E_pair E_mol TotEng Press Volume Lx Ly Lz S/CPU 
   22000    287.83941   -10484.581            0   -9627.4441    17461.372    782.94996    9.2167541    9.2167541    9.2167541            0 
   22100     301.0073   -10535.375            0   -9639.0267   -2985.5421    782.05385    9.2132365    9.2132365    9.2132365    62.142369 
   22200    295.92735   -10527.407            0   -9646.1862    110.13313    781.05532    9.2093136    9.2093136    9.2093136    56.015366 
   22300    289.86465   -10514.616            0   -9651.4491      5060.54    780.21473    9.2060087    9.2060087    9.2060087    54.734821 
   22400    304.42515   -10561.581            0   -9655.0548    14842.436    779.43767    9.2029514    9.2029514    9.2029514    57.476306 
   22500    292.15179   -10524.899            0   -9654.9208    11322.464    779.07564    9.2015264    9.2015264    9.2015264    47.775169 
   22600    283.71404   -10498.977            0   -9654.1247    2754.3364    779.47642    9.2031039    9.2031039    9.2031039    62.594929 
   22700    290.27438   -10517.542            0    -9653.154    16917.832    780.20689    9.2059779    9.2059779    9.2059779    60.344939 
   22800    293.26111   -10524.123            0   -9650.8419   -8496.1545    781.77134     9.212127     9.212127     9.212127    50.647654 
   22900    284.92159   -10494.019            0   -9645.5712     2669.677     783.7209    9.2197783    9.2197783    9.2197783    56.758873 
   23000    303.91452   -10544.303            0   -9639.2977   -2896.5703    786.12873    9.2292106    9.2292106    9.2292106    43.287868 
Loop time of 18.3555 on 16 procs for 1000 steps with 1000 atoms

Performance: 4.707 ns/day, 5.099 hours/ns, 54.480 timesteps/s
94.8% CPU use with 16 MPI tasks x no OpenMP threads

MPI task timing breakdown:
Section |  min time  |  avg time  |  max time  |%varavg| %total
---------------------------------------------------------------
Pair    | 1.6637     | 1.8334     | 2.4788     |  14.6 |  9.99
Neigh   | 0.59378    | 0.63384    | 0.83118    |   7.6 |  3.45
Comm    | 0.42016    | 1.2628     | 1.4717     |  23.0 |  6.88
Output  | 10.1       | 10.384     | 14.594     |  33.7 | 56.57
Modify  | 0.023455   | 4.2345     | 4.5195     |  52.8 | 23.07
Other   |            | 0.00702    |            |       |  0.04

Nlocal:    62.5 ave 66 max 55 min
Histogram: 1 1 0 0 1 3 1 2 1 6
Nghost:    1854.12 ave 1878 max 1842 min
Histogram: 4 1 3 1 4 1 1 0 0 1
Neighs:    0 ave 0 max 0 min
Histogram: 16 0 0 0 0 0 0 0 0 0
FullNghs:  18777.1 ave 19913 max 16427 min
Histogram: 1 1 0 0 2 2 1 2 2 5

Total # of neighbors = 300434
Ave neighs/atom = 300.434
Neighbor list builds = 1000
Dangerous builds not checked
Setting up Verlet run ...
  Unit style    : real
  Current step  : 23000
  Time step     : 1
Per MPI rank memory allocation (min/avg/max) = 4.577 | 4.578 | 4.58 Mbytes
Step Temp E_pair E_mol TotEng Press Volume Lx Ly Lz S/CPU 
   23000    303.91452   -10544.303            0   -9639.2977   -2896.5703    786.12873    9.2292106    9.2292106    9.2292106            0 
   23100    300.74829   -10526.692            0   -9631.1152   -1733.3517    788.36208    9.2379423    9.2379423    9.2379423    48.426854 
   23200    302.88875   -10523.672            0   -9621.7211   -5950.4929    789.96219     9.244188     9.244188     9.244188    51.266791 
   23300    298.25775   -10498.296            0   -9610.1358   -21660.745     790.7695     9.247336     9.247336     9.247336     47.02034 
   23400    295.11139   -10478.828            0   -9600.0365   -17707.785    790.49378    9.2462611    9.2462611    9.2462611    52.931384 
   23500    290.98822   -10457.438            0   -9590.9252    -10463.75    789.46158    9.2422348    9.2422348    9.2422348    62.570084 
   23600    303.84243   -10487.199            0   -9582.4081   -8455.9831    787.85635    9.2359665    9.2359665    9.2359665    37.383056 
   23700     300.9928   -10472.592            0   -9576.2872   -1490.5507    785.83699    9.2280688    9.2280688    9.2280688    61.443153 
   23800    302.44043   -10471.411            0   -9570.7946   -419.07923    783.72507    9.2197946    9.2197946    9.2197946    57.749368 
   23900    294.95684    -10444.66            0    -9566.329    -2863.794    781.95717    9.2128568    9.2128568    9.2128568    51.178813 
   24000    314.87956   -10503.122            0   -9565.4644    3816.9581    780.60904    9.2075593    9.2075593    9.2075593    62.238525 
Loop time of 19.2246 on 16 procs for 1000 steps with 1000 atoms

Performance: 4.494 ns/day, 5.340 hours/ns, 52.017 timesteps/s
94.7% CPU use with 16 MPI tasks x no OpenMP threads

MPI task timing breakdown:
Section |  min time  |  avg time  |  max time  |%varavg| %total
---------------------------------------------------------------
Pair    | 1.629      | 1.8106     | 2.4603     |  16.0 |  9.42
Neigh   | 0.58276    | 0.63189    | 0.84762    |   8.6 |  3.29
Comm    | 0.41208    | 1.2762     | 1.5031     |  25.1 |  6.64
Output  | 10.319     | 10.644     | 15.471     |  38.2 | 55.37
Modify  | 0.02496    | 4.855      | 5.1819     |  56.6 | 25.25
Other   |            | 0.006961   |            |       |  0.04

Nlocal:    62.5 ave 70 max 57 min
Histogram: 2 2 0 5 2 2 1 0 1 1
Nghost:    1859.31 ave 1879 max 1842 min
Histogram: 2 0 2 2 3 3 1 0 1 2
Neighs:    0 ave 0 max 0 min
Histogram: 16 0 0 0 0 0 0 0 0 0
FullNghs:  18910.1 ave 21234 max 16973 min
Histogram: 2 0 2 3 3 2 2 0 1 1

Total # of neighbors = 302562
Ave neighs/atom = 302.562
Neighbor list builds = 1000
Dangerous builds not checked
Setting up Verlet run ...
  Unit style    : real
  Current step  : 24000
  Time step     : 1
Per MPI rank memory allocation (min/avg/max) = 4.577 | 4.578 | 4.58 Mbytes
Step Temp E_pair E_mol TotEng Press Volume Lx Ly Lz S/CPU 
   24000    314.87956   -10503.122            0   -9565.4644    3816.9581    780.60904    9.2075593    9.2075593    9.2075593            0 
   24100    293.49265   -10437.021            0   -9563.0497    15434.702    779.77108    9.2042635    9.2042635    9.2042635    56.763095 
   24200    310.43164   -10488.876            0   -9564.4638    8667.4311    779.88587    9.2047151    9.2047151    9.2047151    50.254891 
   24300    308.36464   -10485.008            0   -9566.7509    13113.358    780.55267    9.2073377    9.2073377    9.2073377    45.145582 
   24400    309.65185     -10491.4            0   -9569.3101   -13946.954    781.27986    9.2101961    9.2101961    9.2101961    64.882092 
   24500    311.50458   -10502.702            0   -9575.0942    7586.5853    781.76004    9.2120826    9.2120826    9.2120826    68.123707 
   24600    305.41794   -10489.579            0   -9580.0969   -10504.111    781.95385    9.2128438    9.2128438    9.2128438    43.657801 
   24700    298.48353   -10473.874            0   -9585.0408     8431.689    781.86033    9.2124765    9.2124765    9.2124765    57.742036 
   24800    307.69946   -10507.403            0   -9591.1261    3653.2697    781.90524    9.2126529    9.2126529    9.2126529     43.14234 
   24900    306.79766   -10510.571            0     -9596.98    16055.299    782.27204    9.2140932    9.2140932    9.2140932    61.917371 
   25000    303.90315   -10505.912            0     -9600.94    11832.111    783.11729    9.2174107    9.2174107    9.2174107    59.692266 
Loop time of 18.6065 on 16 procs for 1000 steps with 1000 atoms

Performance: 4.644 ns/day, 5.168 hours/ns, 53.745 timesteps/s
94.7% CPU use with 16 MPI tasks x no OpenMP threads

MPI task timing breakdown:
Section |  min time  |  avg time  |  max time  |%varavg| %total
---------------------------------------------------------------
Pair    | 1.7039     | 1.7912     | 2.302      |  10.2 |  9.63
Neigh   | 0.59821    | 0.61854    | 0.76844    |   5.1 |  3.32
Comm    | 0.39182    | 1.0516     | 1.1563     |  17.1 |  5.65
Output  | 10.679     | 10.959     | 15.114     |  32.4 | 58.90
Modify  | 0.022505   | 4.1792     | 4.4604     |  52.5 | 22.46
Other   |            | 0.006954   |            |       |  0.04

Nlocal:    62.5 ave 66 max 57 min
Histogram: 1 0 0 2 3 2 3 0 3 2
Nghost:    1860.44 ave 1890 max 1839 min
Histogram: 2 2 1 2 5 1 0 1 1 1
Neighs:    0 ave 0 max 0 min
Histogram: 16 0 0 0 0 0 0 0 0 0
FullNghs:  18866.4 ave 20051 max 16897 min
Histogram: 1 0 0 2 2 2 3 1 2 3

Total # of neighbors = 301862
Ave neighs/atom = 301.862
Neighbor list builds = 1000
Dangerous builds not checked
Setting up Verlet run ...
  Unit style    : real
  Current step  : 25000
  Time step     : 1
Per MPI rank memory allocation (min/avg/max) = 4.577 | 4.578 | 4.58 Mbytes
Step Temp E_pair E_mol TotEng Press Volume Lx Ly Lz S/CPU 
   25000    303.90315   -10505.912            0     -9600.94    11832.111    783.11729    9.2174107    9.2174107    9.2174107            0 
   25100    300.65573   -10502.175            0   -9606.8731    5394.2756    784.50371    9.2228469    9.2228469    9.2228469    48.460325 
   25200    286.85424   -10464.677            0   -9610.4737    4569.3571    786.07742    9.2290098    9.2290098    9.2290098    43.599667 
   25300    297.73321   -10500.928            0   -9614.3298   -2067.2073    787.74791    9.2355427    9.2355427    9.2355427    59.789744 
   25400    300.52068   -10512.917            0   -9618.0176    -12369.75    789.12969    9.2409395    9.2409395    9.2409395    61.426844 
   25500     294.4835   -10497.068            0   -9620.1463     1085.668    789.70068    9.2431678    9.2431678    9.2431678    52.685088 
   25600    292.80051    -10492.33            0     -9620.42   -18140.727    789.49534    9.2423666    9.2423666    9.2423666    59.735299 
   25700    300.88821   -10517.296            0   -9621.3024   -15604.534    788.29854     9.237694     9.237694     9.237694     68.23325 
   25800    294.97503   -10498.153            0   -9619.7674   -10137.806    786.03817    9.2288562    9.2288562    9.2288562    37.777258 
   25900    290.20651   -10481.519            0   -9617.3332   -3779.4008    783.48987    9.2188722    9.2188722    9.2188722    55.809925 
   26000    288.64102   -10473.663            0   -9614.1397    7808.7304    781.26845    9.2101513    9.2101513    9.2101513    62.085845 
Loop time of 18.7449 on 16 procs for 1000 steps with 1000 atoms

Performance: 4.609 ns/day, 5.207 hours/ns, 53.348 timesteps/s
94.7% CPU use with 16 MPI tasks x no OpenMP threads

MPI task timing breakdown:
Section |  min time  |  avg time  |  max time  |%varavg| %total
---------------------------------------------------------------
Pair    | 1.6411     | 1.7794     | 2.3666     |  12.6 |  9.49
Neigh   | 0.59007    | 0.62227    | 0.80034    |   6.3 |  3.32
Comm    | 0.38133    | 1.1454     | 1.3107     |  20.2 |  6.11
Output  | 10.131     | 10.448     | 15.166     |  37.7 | 55.74
Modify  | 0.022555   | 4.7427     | 5.0618     |  56.0 | 25.30
Other   |            | 0.006936   |            |       |  0.04

Nlocal:    62.5 ave 69 max 58 min
Histogram: 1 4 0 4 2 2 1 1 0 1
Nghost:    1839.88 ave 1854 max 1822 min
Histogram: 2 0 3 1 1 1 0 3 2 3
Neighs:    0 ave 0 max 0 min
Histogram: 16 0 0 0 0 0 0 0 0 0
FullNghs:  18885.4 ave 20942 max 17508 min
Histogram: 1 3 1 3 3 2 1 1 0 1

Total # of neighbors = 302166
Ave neighs/atom = 302.166
Neighbor list builds = 1000
Dangerous builds not checked
Setting up Verlet run ...
  Unit style    : real
  Current step  : 26000
  Time step     : 1
Per MPI rank memory allocation (min/avg/max) = 4.577 | 4.578 | 4.58 Mbytes
Step Temp E_pair E_mol TotEng Press Volume Lx Ly Lz S/CPU 
   26000    288.64102   -10473.663            0   -9614.1397    7808.7304    781.26845    9.2101513    9.2101513    9.2101513            0 
   26100     302.4558   -10513.122            0   -9612.4604    -6553.491    779.47972    9.2031169    9.2031169    9.2031169    42.878969 
   26200    303.45938   -10514.467            0   -9610.8171    7133.3794    777.74544    9.1962865    9.1962865    9.1962865    46.211273 
   26300    307.89819   -10527.028            0   -9610.1594   -7580.2899    776.46776    9.1912478    9.1912478    9.1912478    58.040661 
   26400    287.44533   -10465.798            0   -9609.8348    11335.862     775.5396    9.1875841    9.1875841    9.1875841    64.820962 
   26500    294.15262    -10487.38            0   -9611.4439    9035.1262    774.94419    9.1852323    9.1852323    9.1852323    54.277884 
   26600    300.89839   -10508.996            0   -9612.9716   -6642.2495    774.77339    9.1845574    9.1845574    9.1845574     60.65818 
   26700    292.28598   -10485.145            0   -9614.7671    20106.441    774.88629    9.1850035    9.1850035    9.1850035    60.255108 
   26800    295.09741   -10495.001            0   -9616.2511    6427.4949    775.40441    9.1870502    9.1870502    9.1870502    40.503255 
   26900     304.3706   -10525.015            0    -9618.651    12846.046    776.27835    9.1905004    9.1905004    9.1905004    53.015421 
   27000    298.04828   -10506.802            0   -9619.2651    9318.7785    777.52977    9.1954363    9.1954363    9.1954363    48.377662 
Loop time of 19.3346 on 16 procs for 1000 steps with 1000 atoms

Performance: 4.469 ns/day, 5.371 hours/ns, 51.721 timesteps/s
94.9% CPU use with 16 MPI tasks x no OpenMP threads

MPI task timing breakdown:
Section |  min time  |  avg time  |  max time  |%varavg| %total
---------------------------------------------------------------
Pair    | 1.6786     | 1.8892     | 2.8402     |  21.0 |  9.77
Neigh   | 0.59152    | 0.64349    | 0.90322    |   9.9 |  3.33
Comm    | 0.30716    | 1.517      | 1.7778     |  29.9 |  7.85
Output  | 10.389     | 10.696     | 15.252     |  36.0 | 55.32
Modify  | 0.02335    | 4.5816     | 4.8896     |  55.0 | 23.70
Other   |            | 0.007122   |            |       |  0.04

Nlocal:    62.5 ave 68 max 56 min
Histogram: 1 1 1 0 2 5 3 0 1 2
Nghost:    1874.44 ave 1896 max 1844 min
Histogram: 2 0 1 2 1 1 2 1 3 3
Neighs:    0 ave 0 max 0 min
Histogram: 16 0 0 0 0 0 0 0 0 0
FullNghs:  18959.4 ave 20482 max 16810 min
Histogram: 1 1 1 0 2 3 3 2 0 3

Total # of neighbors = 303350
Ave neighs/atom = 303.35
Neighbor list builds = 1000
Dangerous builds not checked
Setting up Verlet run ...
  Unit style    : real
  Current step  : 27000
  Time step     : 1
Per MPI rank memory allocation (min/avg/max) = 4.577 | 4.578 | 4.58 Mbytes
Step Temp E_pair E_mol TotEng Press Volume Lx Ly Lz S/CPU 
   27000    298.04828   -10506.802            0   -9619.2651    9318.7785    777.52977    9.1954363    9.1954363    9.1954363            0 
   27100     295.7895   -10501.416            0   -9620.6053    108.33423    779.13211    9.2017487    9.2017487    9.2017487    54.503446 
   27200    291.16168   -10486.929            0   -9619.8989    1680.4174    780.75355    9.2081274    9.2081274    9.2081274    51.807032 
   27300    293.58614   -10491.761            0   -9617.5121   -21931.446    782.17247    9.2137023    9.2137023    9.2137023    52.311779 
   27400    293.91966   -10487.968            0    -9612.725   -8109.0357    782.51947    9.2150646    9.2150646    9.2150646    58.762221 
   27500     300.6756   -10501.855            0   -9606.4944    11154.297     782.2974    9.2141928    9.2141928    9.2141928    60.472488 
   27600    306.94196   -10514.907            0   -9600.8863    8113.5851    782.06189    9.2132681    9.2132681    9.2132681    61.124173 
   27700    300.27731   -10486.362            0   -9592.1879   -12056.451    781.62451    9.2115502    9.2115502    9.2115502    51.282363 
   27800    296.03804   -10465.219            0   -9583.6682    9969.9937    780.92475    9.2088004    9.2088004    9.2088004    59.048331 
   27900      309.565    -10498.64            0   -9576.8086    -6972.671    780.47909    9.2070483    9.2070483    9.2070483    56.579661 
   28000    299.94639    -10462.69            0   -9569.5007    1435.3406    779.79818    9.2043701    9.2043701    9.2043701    43.729121 
Loop time of 18.3658 on 16 procs for 1000 steps with 1000 atoms

Performance: 4.704 ns/day, 5.102 hours/ns, 54.449 timesteps/s
[...]
  130700    288.77162   -11491.026            0   -10631.114   -2652.4898    727.66042     8.994484     8.994484     8.994484    64.257162 
  130800    302.65076   -11531.858            0   -10630.616   -14315.697     729.7131    9.0029336    9.0029336    9.0029336    53.124366 
  130900    301.71998     -11527.4            0   -10628.929   -26104.001    730.65858    9.0068203    9.0068203    9.0068203    48.854754 
  131000    307.77873   -11545.693            0   -10629.181   -20378.359    730.21046    9.0049786    9.0049786    9.0049786    49.900457 
  131100    304.87934   -11536.669            0   -10628.791   -6029.4877    728.80733     8.999207     8.999207     8.999207    57.790635 
  131200    299.97567   -11521.289            0   -10628.013    10765.829    726.98124    8.9916846    8.9916846    8.9916846     52.35179 
  131300    303.83946   -11534.184            0   -10629.402    6688.8911    725.22405    8.9844342    8.9844342    8.9844342    56.904896 
  131400    299.35682   -11521.835            0   -10630.402    3567.4735    723.96278    8.9792228    8.9792228    8.9792228    54.803858 
  131500    298.80012   -11522.304            0   -10632.528    4351.6663    723.51839    8.9773851    8.9773851    8.9773851    50.600018 
  131600    304.55721   -11541.157            0   -10634.237     13805.83    723.81577    8.9786149    8.9786149    8.9786149    59.337005 
  131700    306.00559   -11549.031            0   -10637.798    3237.1117    724.85294    8.9829014    8.9829014    8.9829014     56.46668 
  131800    307.92807   -11557.162            0   -10640.204    799.86938    726.15492    8.9882766    8.9882766    8.9882766    50.156164 
  131900    290.06199   -11506.362            0   -10642.607   -522.80239    727.55345    8.9940432    8.9940432    8.9940432    58.156545 
  132000    287.29222   -11502.502            0   -10646.994   -10663.779    728.61997    8.9984358    8.9984358    8.9984358    63.199822 
  132100    292.81734   -11523.658            0   -10651.698    2290.0145    728.93808    8.9997452    8.9997452    8.9997452    42.872821 
  132200    289.75572    -11520.08            0   -10657.237   -5164.7511    728.71056    8.9988087    8.9988087    8.9988087    63.252736 
  132300    292.46797   -11536.352            0   -10665.432   -3256.4965    727.72173    8.9947365    8.9947365    8.9947365    57.180417 
  132400    300.99676   -11572.514            0   -10676.198    -15204.93    726.15093    8.9882601    8.9882601    8.9882601    45.643515 
  132500    283.47883   -11531.919            0   -10687.768    12219.656    724.23994    8.9803685    8.9803685    8.9803685    52.239134 
  132600    296.37295    -11585.27            0   -10702.722     13860.46     722.6714    8.9738807    8.9738807    8.9738807    57.368591 
  132700     284.9161   -11562.954            0   -10714.523    21632.424    721.86289    8.9705328    8.9705328    8.9705328    57.685441 
  132800    287.93703   -11581.145            0   -10723.718    1708.3285    722.09846    8.9715085    8.9715085    8.9715085    49.207897 
  132900    290.55432   -11596.639            0   -10731.418    3727.0169    723.14191    8.9758278    8.9758278    8.9758278    65.945127 
  133000    290.31237   -11599.292            0   -10734.791   -6955.8865    724.74657     8.982462     8.982462     8.982462    57.822581 
  133100    291.12064   -11600.763            0   -10733.855   -12881.665    726.44578    8.9894765    8.9894765    8.9894765    44.082597 
  133200    284.41138    -11576.75            0   -10729.822   -21290.899    727.65013    8.9944416    8.9944416    8.9944416    54.643479 
  133300    291.67277   -11594.107            0   -10725.555   -25271.774     727.7853    8.9949985    8.9949985    8.9949985    65.705547 
  133400    286.98564   -11572.214            0    -10717.62   -4320.1601    726.61859    8.9901893    8.9901893    8.9901893    47.513398 
  133500    290.08047   -11571.307            0   -10707.496    6187.4611     724.5983    8.9818494    8.9818494    8.9818494    43.577858 
  133600    296.08836   -11578.754            0   -10697.054    9208.8926    722.39088    8.9727194    8.9727194    8.9727194    52.702618 
  133700    303.02299   -11589.139            0   -10686.788    17688.884    720.42566    8.9645754    8.9645754    8.9645754    38.767681 
  133800    296.74423   -11561.019            0   -10677.365    29639.425    719.40157    8.9603257    8.9603257    8.9603257    58.495551 
  133900     298.1002   -11559.534            0   -10671.843    28809.184    719.78821    8.9619306    8.9619306    8.9619306    46.693909 
  134000       309.36   -11590.678            0   -10669.456    24035.705    722.02699    8.9712125    8.9712125    8.9712125    48.145489 
  134100    299.90887    -11559.19            0   -10666.113    13362.995    725.85968    8.9870583    8.9870583    8.9870583    44.946206 
  134200     296.7516   -11545.177            0   -10661.501   -20842.097    730.39525    9.0057381    9.0057381    9.0057381    63.095275 
  134300    303.77232   -11561.554            0   -10656.972   -40907.214    734.05728    9.0207639    9.0207639    9.0207639    40.114329 
  134400    291.24085   -11518.706            0   -10651.441   -56730.523    735.42881    9.0263786    9.0263786    9.0263786    58.794525 
  134500    291.97315   -11517.098            0   -10647.651   -33697.878    733.85245    9.0199248    9.0199248    9.0199248    47.195746 
  134600    291.35607   -11511.249            0    -10643.64   -20363.909    729.98629     9.004057     9.004057     9.004057    66.694157 
  134700    298.00478   -11526.086            0   -10638.679    9587.0092    725.04693    8.9837027    8.9837027    8.9837027    56.799278 
  134800    308.90472   -11554.244            0   -10634.379    22830.618    720.61181    8.9653475    8.9653475    8.9653475    48.854607 
  134900    304.93155   -11537.582            0   -10629.548    53145.114    717.83819    8.9538302    8.9538302    8.9538302    46.976185 
  135000     305.7119    -11536.43            0   -10626.072    35007.866    717.64576      8.95303      8.95303      8.95303    55.165164 
  135100    296.20675   -11507.588            0   -10625.535    27296.202    720.03129    8.9629393    8.9629393    8.9629393    59.714647 
  135200    299.04972   -11518.533            0   -10628.014    11117.115    724.26021    8.9804523    8.9804523    8.9804523    60.785027 
  135300     306.3686   -11541.724            0   -10629.411   -16643.939    729.18184    9.0007483    9.0007483    9.0007483    62.817317 
  135400    310.07247   -11553.779            0   -10630.436   -30951.154    733.13201    9.0169721    9.0169721    9.0169721    47.937481 
  135500    298.31349   -11518.247            0    -10629.92   -41803.597    735.11235    9.0250837    9.0250837    9.0250837    64.685721 
  135600    295.59741   -11511.011            0   -10630.772   -36589.842    734.73083    9.0235221    9.0235221    9.0235221    60.180673 
  135700    294.54065   -11510.401            0   -10633.309   -31626.915    732.04317     9.012506     9.012506     9.012506    57.784361 
  135800    294.45524   -11513.419            0   -10636.582   -1280.5993    727.92151    8.9955596    8.9955596    8.9955596    38.267108 
  135900    302.04537   -11538.792            0   -10639.353    27409.407    723.72681    8.9782471    8.9782471    8.9782471    59.636753 
  136000    297.38422   -11526.332            0   -10640.773    33444.925    720.74261    8.9658899    8.9658899    8.9658899    53.741037 
  136100    305.08617   -11555.699            0   -10647.204    23142.244     719.6753     8.961462     8.961462     8.961462    53.447825 
  136200    302.22227   -11554.359            0   -10654.393    21737.993    720.53574     8.965032     8.965032     8.965032    52.874952 
  136300    301.83785   -11561.332            0    -10662.51    7913.3775    722.83171    8.9745441    8.9745441    8.9745441    49.330101 
  136400    293.53417   -11544.083            0   -10669.988    10759.565    725.86719    8.9870893    8.9870893    8.9870893     50.76513 
  136500    299.40539   -11568.901            0   -10677.323   -22041.487    728.78359    8.9991093    8.9991093    8.9991093     63.88496 
  136600    289.37659    -11542.55            0   -10680.836   -22174.849    730.44228    9.0059314    9.0059314    9.0059314    55.865665 
  136700    302.64207   -11588.599            0   -10687.383   -21230.831    730.59831    9.0065726    9.0065726    9.0065726    35.961614 
  136800    276.88205   -11513.603            0   -10689.095   -20436.404    729.23451     9.000965     9.000965     9.000965    58.016192 
  136900    299.30432   -11583.865            0   -10692.588   -17859.746     726.6974    8.9905143    8.9905143    8.9905143    53.484024 
  137000    297.54714   -11578.604            0   -10692.559    11106.443    723.77114    8.9784304    8.9784304    8.9784304    51.232257 
  137100    293.78167   -11565.584            0   -10690.753    18837.892    721.41113    8.9686611    8.9686611    8.9686611    57.292444 
  137200    300.43541   -11582.248            0   -10687.603    23687.106    720.25286    8.9638586    8.9638586    8.9638586    62.684664 
  137300     296.0151    -11564.43            0   -10682.948    22013.812    720.47586    8.9647836    8.9647836    8.9647836    56.205781 
  137400    298.63114   -11566.898            0   -10677.626    14068.876    722.15154    8.9717283    8.9717283    8.9717283    46.479588 
  137500    307.48437   -11584.684            0   -10669.048    4094.7815    724.90838    8.9831305    8.9831305    8.9831305    59.361835 
  137600    300.22563    -11550.18            0   -10656.159   -14531.687    727.88759    8.9954198    8.9954198    8.9954198    36.964761 
  137700    304.59983    -11549.23            0   -10642.184   -28905.429    730.11185    9.0045732    9.0045732    9.0045732     57.10856 
  137800    288.93438     -11489.6            0   -10629.203   -19739.958    730.91106    9.0078576    9.0078576    9.0078576    64.351765 
  137900    314.01864    -11555.72            0   -10620.626    -19575.18    730.23637     9.005085     9.005085     9.005085    44.448547 
  138000    308.60646   -11530.815            0   -10611.838   -16077.343    728.37927    8.9974448    8.9974448    8.9974448    43.827428 
  138100    312.91309   -11539.154            0   -10607.352    10268.896    725.95353    8.9874456    8.9874456    8.9874456    60.084158 
  138200    305.41917    -11514.17            0   -10604.684    12437.069    723.81331    8.9786048    8.9786048    8.9786048    58.075103 
  138300    308.26037   -11521.987            0    -10604.04    18125.715    722.53978    8.9733358    8.9733358    8.9733358     50.95958 
  138400    312.57526   -11535.555            0   -10604.759    21347.505     722.3167    8.9724122    8.9724122    8.9724122    66.342386 
  138500    311.29753   -11534.212            0   -10607.221      6526.76    723.17725     8.975974     8.975974     8.975974    60.494905 
  138600    293.37119   -11484.346            0   -10610.737    25812.585    724.74589    8.9824592    8.9824592    8.9824592    42.556235 
  138700     310.3292   -11540.219            0   -10616.111   -6366.0607    726.77217    8.9908226    8.9908226    8.9908226    51.661214 
  138800    302.82208   -11523.975            0   -10622.223   -4224.2287    728.51901    8.9980202    8.9980202    8.9980202    59.677627 
  138900    299.69173   -11520.323            0   -10627.893   -12122.492    729.66187    9.0027229    9.0027229    9.0027229    51.626309 
  139000    298.80199    -11522.72            0   -10632.939   -13055.516    729.92155    9.0037908    9.0037908    9.0037908    60.822562 
  139100    294.78391   -11517.153            0   -10639.337     1423.501     729.1252    9.0005152    9.0005152    9.0005152    59.201306 
  139200    297.21258   -11529.151            0   -10644.102    792.97371    727.66301    8.9944946    8.9944946    8.9944946    47.984967 
  139300    290.39208   -11514.319            0   -10649.581   -13428.361    725.66635    8.9862603    8.9862603    8.9862603    58.094128 
  139400    311.41094   -11582.819            0    -10655.49     6820.948    723.51114    8.9773552    8.9773552    8.9773552    62.019687 
  139500    308.03937   -11575.902            0   -10658.614    15005.995    722.08482     8.971452     8.971452     8.971452    58.095092 
  139600    294.19587   -11535.927            0   -10659.862    30606.452     721.8316    8.9704032    8.9704032    8.9704032    59.486199 
  139700    295.55312   -11542.491            0   -10662.384    16341.846    722.62604    8.9736929    8.9736929    8.9736929    52.245164 
  139800    288.38383   -11522.006            0   -10663.248    4414.9245    724.14148    8.9799615    8.9799615    8.9799615     36.01263 
  139900    292.50285   -11534.292            0   -10663.268   -11023.899    725.51387    8.9856308    8.9856308    8.9856308    45.292514 
  140000    303.04385   -11567.054            0   -10664.642   -18813.035    726.51774    8.9897733    8.9897733    8.9897733     59.21465 
  140100    296.63051   -11547.308            0   -10663.993   -19935.516    726.87359    8.9912408    8.9912408    8.9912408    48.270884 
  140200     291.0197    -11528.84            0   -10662.233    4909.0391    726.40806    8.9893209    8.9893209    8.9893209    47.166211 
  140300    305.90552   -11573.219            0   -10662.284    6587.9257    725.58741    8.9859344    8.9859344    8.9859344     49.77526 
  140400     298.8276   -11550.158            0   -10660.301    3008.5138    724.71842    8.9823457    8.9823457    8.9823457    55.585665 
  140500    306.91796    -11573.15            0   -10659.201    8778.8319    723.99383    8.9793512    8.9793512    8.9793512    47.696785 
  140600    297.82107   -11546.096            0   -10659.236    10168.538    723.74141    8.9783075    8.9783075    8.9783075    64.206348 
  140700    296.33135   -11540.839            0   -10658.415    2212.9858    724.04588    8.9795663    8.9795663    8.9795663    43.321471 
  140800    295.85948   -11539.254            0   -10658.235   -2412.2757    724.57568     8.981756     8.981756     8.981756    61.494061 
  140900    298.28435   -11547.126            0   -10658.886   -7332.7077    725.25416    8.9845585    8.9845585    8.9845585    51.508579 
  141000    301.47363   -11556.298            0   -10658.561   -1298.2782    725.82754    8.9869256    8.9869256    8.9869256    63.347277 
  141100     307.2531   -11572.797            0   -10657.849    -9805.341    726.29654    8.9888609    8.9888609    8.9888609    65.275467 
  141200    293.87468   -11530.542            0   -10655.433   -1535.7732    726.56138    8.9899533    8.9899533    8.9899533    48.871351 
  141300    293.93506   -11529.719            0    -10654.43    3824.3943    726.44246    8.9894628    8.9894628    8.9894628    49.017962 
  141400    301.47337   -11550.758            0   -10653.022   -8485.5843    726.12283    8.9881442    8.9881442    8.9881442    54.648058 
  141500    304.59334   -11558.974            0   -10651.947   -10794.632    725.63093    8.9861141    8.9861141    8.9861141    47.937366 
  141600    300.33528    -11543.94            0   -10649.593   -2442.4426     725.0214    8.9835973    8.9835973    8.9835973    58.739817 
  141700    309.37991   -11568.364            0   -10647.084    12607.042    724.45722    8.9812665    8.9812665    8.9812665    53.859636 
  141800    295.37021   -11522.546            0   -10642.984    9643.2846    724.20217    8.9802124    8.9802124    8.9802124    41.563196 
  141900    299.53604   -11529.534            0   -10637.566    12101.969    724.64509    8.9820427    8.9820427    8.9820427    43.363662 
  142000    297.51848   -11515.875            0   -10629.916     7054.123    725.61845    8.9860626    8.9860626    8.9860626    53.482432 
  142100    313.97249   -11558.514            0   -10623.558    362.45008    726.84215    8.9911112    8.9911112    8.9911112    63.600146 
  142200    310.94902   -11539.254            0   -10613.301   -5844.0308    728.00702    8.9959118    8.9959118    8.9959118    62.787564 
  142300    307.10072   -11517.304            0    -10602.81   -16958.219    728.78265    8.9991055    8.9991055    8.9991055    50.468316 
  142400    304.22958   -11500.573            0   -10594.629   -7486.0897    729.08582    9.0003532    9.0003532    9.0003532    57.544134 
  142500    315.17644   -11526.959            0   -10588.417   -11905.127    728.95113    8.9997989    8.9997989    8.9997989    63.357077 
  142600    309.49934   -11504.888            0   -10583.252    -4423.886    728.31839    8.9971942    8.9971942    8.9971942    55.312919 
  142700    318.18014   -11529.223            0   -10581.737   -8910.9553    727.38954    8.9933677    8.9933677    8.9933677    46.086467 
  142800    325.16792   -11549.777            0   -10581.482    9632.2534    726.24773    8.9886595    8.9886595    8.9886595    56.744571 
  142900    313.12952   -11517.756            0    -10585.31   -7413.6928    725.28802    8.9846984    8.9846984    8.9846984     49.07963 
  143000    312.63845   -11521.942            0   -10590.958    3766.3702    724.50205    8.9814517    8.9814517    8.9814517    55.221565 
  143100    308.80989   -11519.822            0   -10600.239    16017.825    724.27725    8.9805227    8.9805227    8.9805227    63.904507 
  143200    312.12737   -11542.562            0     -10613.1    8408.9525    724.72059    8.9823547    8.9823547    8.9823547    58.780427 
  143300    313.57081   -11562.441            0   -10628.681    2754.6638    725.53988    8.9857383    8.9857383    8.9857383    55.786253 
  143400    291.54213   -11508.141            0   -10639.978   -4383.9239    726.53305    8.9898365    8.9898365    8.9898365    52.096959 
  143500    302.94581   -11555.672            0   -10653.552   -9507.0471    727.46224    8.9936673    8.9936673    8.9936673    47.729027 
  143600    300.40992    -11555.38            0   -10660.811    -6817.967    727.92725    8.9955832    8.9955832    8.9955832    55.313827 
  143700    298.13533   -11553.041            0   -10665.245   -15914.143    727.64089    8.9944035    8.9944035    8.9944035    63.250328 
  143800    307.95405   -11585.291            0   -10668.257   -7265.2501    726.59865    8.9901071    8.9901071    8.9901071    43.470631 
  143900    298.46208   -11558.502            0   -10669.733    2244.5824    725.30699    8.9847767    8.9847767    8.9847767    49.184908 
  144000    301.32083   -11567.438            0   -10670.156    10760.195    724.41201    8.9810796    8.9810796    8.9810796    52.748443 
Loop time of 1830.04 on 16 procs for 100000 steps with 1000 atoms

Performance: 4.721 ns/day, 5.083 hours/ns, 54.644 timesteps/s
94.8% CPU use with 16 MPI tasks x no OpenMP threads

MPI task timing breakdown:
Section |  min time  |  avg time  |  max time  |%varavg| %total
---------------------------------------------------------------
Pair    | 162.69     | 182.14     | 251.23     | 141.1 |  9.95
Neigh   | 61.375     | 64.991     | 84.897     |  66.3 |  3.55
Comm    | 32.829     | 121.72     | 144.77     | 219.1 |  6.65
Output  | 985.96     | 1015.8     | 1457.9     | 358.2 | 55.51
Modify  | 2.295      | 444.7      | 474.61     | 541.7 | 24.30
Other   |            | 0.7191     |            |       |  0.04

Nlocal:    62.5 ave 66 max 59 min
Histogram: 1 0 5 0 3 2 0 2 2 1
Nghost:    1948.5 ave 1970 max 1930 min
Histogram: 2 0 2 3 1 2 4 1 0 1
Neighs:    0 ave 0 max 0 min
Histogram: 16 0 0 0 0 0 0 0 0 0
FullNghs:  20309.8 ave 21388 max 19108 min
Histogram: 1 0 1 4 3 1 1 2 2 1

Total # of neighbors = 324956
Ave neighs/atom = 324.956
Neighbor list builds = 100000
Dangerous builds not checked
Total wall time: 0:43:56
