LAMMPS (16 Mar 2018)
Reading data file ...
  orthogonal box = (-4.72499 -4.72499 -4.72499) to (4.72499 4.72499 4.72499)
  2 by 2 by 4 MPI processor grid
  reading atoms ...
  1000 atoms
Reading potential file /home/fs01/ajm529/lammps-16Mar18/potentials/sw_potentials/AG/eps2.23.sw with DATE: 2008-01-29
Neighbor list info ...
  update every 1 steps, delay 0 steps, check no
  max neighbors/atom: 2000, page size: 100000
  master list distance cutoff = 3.836
  ghost atom cutoff = 3.836
  binsize = 1.918, bins = 5 5 5
  1 neighbor lists, perpetual/occasional/extra = 1 0 0
  (1) pair sw, perpetual
      attributes: full, newton on
      pair build: full/bin/atomonly
      stencil: full/bin/3d
      bin: standard
Setting up Verlet run ...
  Unit style    : real
  Current step  : 0
  Time step     : 1
Per MPI rank memory allocation (min/avg/max) = 3.518 | 3.519 | 3.52 Mbytes
Step Temp E_pair E_mol TotEng Press Volume Lx Ly Lz S/CPU 
       0          300   -10066.208            0   -9172.8596    -44223.75    843.90266    9.4499777    9.4499777    9.4499777            0 
     100    333.46674   -10171.423            0   -9178.4162    -54544.05    841.77342    9.4420233    9.4420233    9.4420233    47.064246 
     200    335.01868   -10191.623            0   -9193.9948   -46324.779    835.73675    9.4193984    9.4193984    9.4193984    48.070601 
     300    335.34459   -10216.637            0   -9218.0376   -29682.396    826.50991    9.3846055    9.3846055    9.3846055    45.774964 
     400    332.44106    -10233.53            0   -9243.5771   -14337.939    815.53971    9.3429001    9.3429001    9.3429001    34.885041 
     500    340.42476    -10278.71            0    -9264.983   -10548.251    805.06595    9.3027315    9.3027315    9.3027315    61.154944 
     600    333.21944    -10274.78            0   -9282.5093      4324.89    796.27332    9.2687405    9.2687405    9.2687405    51.528979 
     700    333.34061    -10294.86            0   -9302.2284    9339.3494    789.35784      9.24183      9.24183      9.24183    57.869265 
     800    325.37952   -10291.369            0   -9322.4439    18566.374    784.85769    9.2242339    9.2242339    9.2242339    51.484855 
     900    334.13871   -10340.496            0   -9345.4882    9641.0203     782.6709     9.215659     9.215659     9.215659    54.964159 
    1000    335.53302   -10369.245            0   -9370.0855    19553.515    782.08031    9.2133404    9.2133404    9.2133404    56.616275 
Loop time of 20.088 on 16 procs for 1000 steps with 1000 atoms

Performance: 4.301 ns/day, 5.580 hours/ns, 49.781 timesteps/s
94.6% CPU use with 16 MPI tasks x no OpenMP threads

MPI task timing breakdown:
Section |  min time  |  avg time  |  max time  |%varavg| %total
---------------------------------------------------------------
Pair    | 1.5412     | 1.7301     | 2.4373     |  20.3 |  8.61
Neigh   | 0.58016    | 0.62557    | 0.83369    |   9.9 |  3.11
Comm    | 0.33472    | 1.2491     | 1.4824     |  30.9 |  6.22
Output  | 11.438     | 11.754     | 16.451     |  35.4 | 58.51
Modify  | 0.023326   | 4.7224     | 5.0402     |  55.8 | 23.51
Other   |            | 0.007057   |            |       |  0.04

Nlocal:    62.5 ave 67 max 57 min
Histogram: 1 0 0 1 1 5 3 4 0 1
Nghost:    1855.62 ave 1873 max 1835 min
Histogram: 1 1 1 1 2 5 1 2 0 2
Neighs:    0 ave 0 max 0 min
Histogram: 16 0 0 0 0 0 0 0 0 0
FullNghs:  18863.4 ave 20207 max 17162 min
Histogram: 1 0 0 2 2 3 3 4 0 1

Total # of neighbors = 301814
Ave neighs/atom = 301.814
Neighbor list builds = 1000
Dangerous builds not checked
Setting up Verlet run ...
  Unit style    : real
  Current step  : 1000
  Time step     : 1
Per MPI rank memory allocation (min/avg/max) = 3.769 | 4.326 | 4.579 Mbytes
Step Temp E_pair E_mol TotEng Press Volume Lx Ly Lz S/CPU 
    1000    335.53302   -10369.245            0   -9370.0855    19553.515    782.08031    9.2133404    9.2133404    9.2133404            0 
    1100    331.15188   -10381.093            0   -9394.9795    19679.641    782.65787    9.2156078    9.2156078    9.2156078    50.333651 
    1200    315.86986    -10357.77            0   -9417.1639    7648.1683    784.31145    9.2220935    9.2220935    9.2220935    51.435693 
    1300    309.24698   -10358.969            0   -9438.0842    2524.1997    786.30109    9.2298851    9.2298851    9.2298851    79.167431 
    1400    324.92306   -10427.715            0   -9460.1497   -5513.2668    788.58161    9.2387996    9.2387996    9.2387996    51.977362 
    1500    312.19613   -10408.667            0   -9479.0005   -4595.4012    790.85721    9.2476779    9.2476779    9.2476779      73.6849 
    1600    307.86914   -10414.504            0   -9497.7224   -20677.629     792.3851    9.2536294    9.2536294    9.2536294    44.007321 
    1700    307.84593   -10431.614            0   -9514.9016   -7400.9968    793.26284    9.2570449    9.2570449    9.2570449    60.195815 
    1800    295.90296   -10412.718            0   -9531.5697   -28589.005    793.57315    9.2582518    9.2582518    9.2582518    57.360733 
    1900    303.26534   -10450.222            0   -9547.1495   -16064.813    792.81495    9.2553024    9.2553024    9.2553024    63.862742 
    2000    303.04042   -10463.255            0   -9560.8522    994.47494    791.49228    9.2501525    9.2501525    9.2501525    51.674795 
Loop time of 17.6531 on 16 procs for 1000 steps with 1000 atoms

Performance: 4.894 ns/day, 4.904 hours/ns, 56.647 timesteps/s
94.5% CPU use with 16 MPI tasks x no OpenMP threads

MPI task timing breakdown:
Section |  min time  |  avg time  |  max time  |%varavg| %total
---------------------------------------------------------------
Pair    | 1.657      | 1.7122     | 1.77       |   2.5 |  9.70
Neigh   | 0.59261    | 0.60395    | 0.62631    |   1.1 |  3.42
Comm    | 0.42185    | 0.49428    | 0.56039    |   5.7 |  2.80
Output  | 9.5341     | 9.8671     | 14.815     |  40.7 | 55.89
Modify  | 0.020358   | 4.9687     | 5.3017     |  57.3 | 28.15
Other   |            | 0.006897   |            |       |  0.04

Nlocal:    62.5 ave 69 max 55 min
Histogram: 3 0 1 1 1 3 1 2 2 2
Nghost:    1845.25 ave 1864 max 1835 min
Histogram: 3 4 2 1 1 2 0 1 1 1
Neighs:    0 ave 0 max 0 min
Histogram: 16 0 0 0 0 0 0 0 0 0
FullNghs:  18649 ave 20633 max 16334 min
Histogram: 2 1 1 1 1 3 1 2 2 2

Total # of neighbors = 298384
Ave neighs/atom = 298.384
Neighbor list builds = 1000
Dangerous builds not checked
Setting up Verlet run ...
  Unit style    : real
  Current step  : 2000
  Time step     : 1
Per MPI rank memory allocation (min/avg/max) = 3.769 | 4.477 | 4.579 Mbytes
Step Temp E_pair E_mol TotEng Press Volume Lx Ly Lz S/CPU 
    2000    303.04042   -10463.255            0   -9560.8522    994.47494    791.49228    9.2501525    9.2501525    9.2501525            0 
    2100     304.0559   -10478.429            0   -9573.0023    2621.0485    790.32682    9.2456101    9.2456101    9.2456101    70.989998 
    2200    294.98083   -10462.042            0   -9583.6397    126.44305    789.20753    9.2412434    9.2412434    9.2412434     44.05687 
    2300    296.58398   -10475.301            0   -9592.1246    3514.0986    788.03051    9.2366469    9.2366469    9.2366469    61.525778 
    2400    300.78862    -10495.52            0   -9599.8228     11208.17      787.058    9.2328457    9.2328457    9.2328457    50.921378 
    2500    296.26412    -10488.56            0   -9606.3365   -12565.325    786.46317    9.2305192    9.2305192    9.2305192    61.396864 
    2600    291.67978   -10478.988            0   -9610.4158   -17228.477    785.74806    9.2277207    9.2277207    9.2277207    48.450041 
    2700     293.0307   -10487.557            0   -9614.9619    -4088.953    784.90575    9.2244222    9.2244222    9.2244222    65.841898 
    2800    295.97436   -10499.675            0   -9618.3142   -3537.5027    783.96463    9.2207339    9.2207339    9.2207339    56.261095 
    2900    290.98534   -10485.297            0   -9618.7922   -3535.6377     782.8605    9.2164031    9.2164031    9.2164031    51.349521 
    3000    300.29797   -10514.597            0   -9620.3606    902.85552    781.37618    9.2105746    9.2105746    9.2105746    37.096931 
Loop time of 18.8996 on 16 procs for 1000 steps with 1000 atoms

Performance: 4.572 ns/day, 5.250 hours/ns, 52.911 timesteps/s
94.5% CPU use with 16 MPI tasks x no OpenMP threads

MPI task timing breakdown:
Section |  min time  |  avg time  |  max time  |%varavg| %total
---------------------------------------------------------------
Pair    | 1.6679     | 1.7196     | 1.7714     |   2.2 |  9.10
Neigh   | 0.5922     | 0.60436    | 0.62582    |   1.1 |  3.20
Comm    | 0.44522    | 0.50826    | 0.56852    |   5.2 |  2.69
Output  | 10.477     | 10.828     | 16.039     |  40.9 | 57.29
Modify  | 0.0205     | 5.2327     | 5.5835     |  58.8 | 27.69
Other   |            | 0.006919   |            |       |  0.04

Nlocal:    62.5 ave 68 max 55 min
Histogram: 1 0 1 1 2 2 6 0 1 2
Nghost:    1852.69 ave 1866 max 1837 min
Histogram: 1 2 1 2 1 2 2 1 2 2
Neighs:    0 ave 0 max 0 min
Histogram: 16 0 0 0 0 0 0 0 0 0
FullNghs:  18897.6 ave 20713 max 16424 min
Histogram: 1 0 1 1 2 3 3 3 1 1

Total # of neighbors = 302362
Ave neighs/atom = 302.362
Neighbor list builds = 1000
Dangerous builds not checked
Setting up Verlet run ...
  Unit style    : real
  Current step  : 3000
  Time step     : 1
Per MPI rank memory allocation (min/avg/max) = 4.578 | 4.578 | 4.579 Mbytes
Step Temp E_pair E_mol TotEng Press Volume Lx Ly Lz S/CPU 
    3000    300.29797   -10514.597            0   -9620.3606    902.85552    781.37618    9.2105746    9.2105746    9.2105746            0 
    3100    293.27775   -10493.092            0   -9619.7608    16408.113    779.91219    9.2048186    9.2048186    9.2048186    45.822972 
    3200    306.81083   -10533.812            0   -9620.1814    3333.4289    779.23497    9.2021536    9.2021536    9.2021536    49.801172 
    3300     298.9255   -10508.617            0   -9618.4677    4581.0834    778.84295    9.2006102    9.2006102    9.2006102    60.080549 
    3400    299.78214   -10510.198            0   -9617.4977    4241.5132    778.49261    9.1992305    9.1992305    9.1992305    53.088902 
    3500    288.03244   -10472.564            0   -9614.8527    1886.5459     778.3062    9.1984961    9.1984961    9.1984961    66.540934 
    3600    309.77865   -10535.868            0   -9613.4005    2244.7013    778.09871    9.1976787    9.1976787    9.1976787    51.082298 
    3700    308.76947   -10530.285            0   -9610.8222    8544.6371    778.13538    9.1978231    9.1978231    9.1978231    52.250837 
    3800    306.96942    -10523.38            0   -9609.2775   -457.30147    778.43166    9.1989903    9.1989903    9.1989903    48.647535 
    3900    311.09475   -10534.763            0   -9608.3762    8884.9519    778.79887    9.2004366    9.2004366    9.2004366    57.083766 
    4000    293.28064   -10478.187            0   -9604.8474    14731.379    779.69203    9.2039524    9.2039524    9.2039524    50.053616 
Loop time of 18.918 on 16 procs for 1000 steps with 1000 atoms

Performance: 4.567 ns/day, 5.255 hours/ns, 52.860 timesteps/s
94.5% CPU use with 16 MPI tasks x no OpenMP threads

MPI task timing breakdown:
Section |  min time  |  avg time  |  max time  |%varavg| %total
---------------------------------------------------------------
Pair    | 1.6703     | 1.7618     | 1.9182     |   4.5 |  9.31
Neigh   | 0.58457    | 0.60791    | 0.6509     |   2.0 |  3.21
Comm    | 0.39382    | 0.59291    | 0.70702    |   9.7 |  3.13
Output  | 11.065     | 11.372     | 15.927     |  34.9 | 60.11
Modify  | 0.020398   | 4.5763     | 4.8832     |  55.0 | 24.19
Other   |            | 0.00698    |            |       |  0.04

Nlocal:    62.5 ave 68 max 58 min
Histogram: 1 2 3 1 2 2 1 0 1 3
Nghost:    1854.31 ave 1877 max 1834 min
Histogram: 3 1 2 2 0 0 2 3 1 2
Neighs:    0 ave 0 max 0 min
Histogram: 16 0 0 0 0 0 0 0 0 0
FullNghs:  18897.4 ave 20706 max 17517 min
Histogram: 2 2 3 2 2 0 1 1 0 3

Total # of neighbors = 302358
Ave neighs/atom = 302.358
Neighbor list builds = 1000
Dangerous builds not checked
Setting up Verlet run ...
  Unit style    : real
  Current step  : 4000
  Time step     : 1
Per MPI rank memory allocation (min/avg/max) = 4.578 | 4.578 | 4.579 Mbytes
Step Temp E_pair E_mol TotEng Press Volume Lx Ly Lz S/CPU 
    4000    293.28064   -10478.187            0   -9604.8474    14731.379    779.69203    9.2039524    9.2039524    9.2039524            0 
    4100    300.97733   -10501.613            0   -9605.3538   -101.07843    781.15997     9.209725     9.209725     9.209725    52.905022 
    4200    310.15781   -10530.635            0   -9607.0382   -5724.2501    782.98756    9.2169017    9.2169017    9.2169017    66.244919 
    4300     298.4496   -10497.843            0   -9609.1109    1437.8691    784.79754    9.2239982    9.2239982    9.2239982     47.64099 
    4400    302.28617   -10512.784            0   -9612.6269   -6681.4422    786.36063     9.230118     9.230118     9.230118    68.196279 
    4500    285.30381   -10464.819            0   -9615.2331    63.410203    787.65509    9.2351799    9.2351799    9.2351799     52.70815 
    4600    293.43745   -10493.316            0   -9619.5095   -7227.8317    788.58783    9.2388239    9.2388239    9.2388239    47.265511 
    4700    290.50277    -10486.41            0   -9621.3425   -337.43059    788.79397    9.2396289    9.2396289    9.2396289    59.748934 
    4800    295.15145   -10501.899            0    -9622.988    3589.7974    788.22348    9.2374008    9.2374008    9.2374008    66.695765 
    4900    285.09251   -10472.472            0   -9623.5156    2086.2047     787.1426    9.2331765    9.2331765    9.2331765    56.817385 
    5000     296.0653    -10504.11            0   -9622.4779   -165.10297    785.56112    9.2269888    9.2269888    9.2269888    48.744474 
Loop time of 17.9627 on 16 procs for 1000 steps with 1000 atoms

Performance: 4.810 ns/day, 4.990 hours/ns, 55.671 timesteps/s
94.5% CPU use with 16 MPI tasks x no OpenMP threads

MPI task timing breakdown:
Section |  min time  |  avg time  |  max time  |%varavg| %total
---------------------------------------------------------------
Pair    | 1.6008     | 1.7247     | 1.8685     |   4.4 |  9.60
Neigh   | 0.58613    | 0.60526    | 0.65558    |   2.0 |  3.37
Comm    | 0.40599    | 0.59995    | 0.7427     |   9.3 |  3.34
Output  | 10.155     | 10.461     | 15.004     |  36.3 | 58.24
Modify  | 0.021208   | 4.5647     | 4.8708     |  54.9 | 25.41
Other   |            | 0.006893   |            |       |  0.04

Nlocal:    62.5 ave 70 max 58 min
Histogram: 4 2 1 1 2 3 2 0 0 1
Nghost:    1851.44 ave 1874 max 1834 min
Histogram: 2 2 2 2 0 2 3 0 2 1
Neighs:    0 ave 0 max 0 min
Histogram: 16 0 0 0 0 0 0 0 0 0
FullNghs:  18804.8 ave 21209 max 17397 min
Histogram: 4 2 1 2 2 2 2 0 0 1

Total # of neighbors = 300876
Ave neighs/atom = 300.876
Neighbor list builds = 1000
Dangerous builds not checked
Setting up Verlet run ...
  Unit style    : real
  Current step  : 5000
  Time step     : 1
Per MPI rank memory allocation (min/avg/max) = 4.578 | 4.578 | 4.579 Mbytes
Step Temp E_pair E_mol TotEng Press Volume Lx Ly Lz S/CPU 
    5000     296.0653    -10504.11            0   -9622.4779   -165.10297    785.56112    9.2269888    9.2269888    9.2269888            0 
    5100    289.09705    -10480.92            0   -9620.0385    8040.2583    783.85633    9.2203093    9.2203093    9.2203093    48.466012 
    5200     289.2955   -10478.702            0   -9617.2292    6043.2861    782.13987    9.2135743    9.2135743    9.2135743    69.930866 
    5300    295.97332   -10494.415            0   -9613.0572   -6047.7855    780.15077    9.2057572    9.2057572    9.2057572    68.002917 
    5400    295.72731    -10488.98            0   -9608.3541   -259.74297    778.23044    9.1981977    9.1981977    9.1981977    55.492076 
    5500     303.7643   -10508.342            0   -9603.7837    19094.923    776.66391    9.1920217    9.1920217    9.1920217    54.003604 
    5600      310.355    -10523.24            0   -9599.0558   -2633.7949    775.81978    9.1886903    9.1886903    9.1886903    68.961972 
    5700    304.11649    -10499.27            0   -9593.6631    12098.558    775.36316    9.1868873    9.1868873    9.1868873    54.680772 
    5800    296.22409   -10469.857            0   -9587.7526    3430.7111    775.49649    9.1874138    9.1874138    9.1874138     63.43545 
    5900    314.03184   -10518.798            0   -9583.6651     1879.395    776.08773    9.1897481    9.1897481    9.1897481    59.114747 
    6000    298.68737   -10467.748            0   -9578.3081   -3211.9101    777.31404    9.1945858    9.1945858    9.1945858    48.669944 
Loop time of 17.2192 on 16 procs for 1000 steps with 1000 atoms

Performance: 5.018 ns/day, 4.783 hours/ns, 58.075 timesteps/s
94.6% CPU use with 16 MPI tasks x no OpenMP threads

MPI task timing breakdown:
Section |  min time  |  avg time  |  max time  |%varavg| %total
---------------------------------------------------------------
Pair    | 1.6353     | 1.7549     | 1.8671     |   4.8 | 10.19
Neigh   | 0.58925    | 0.60726    | 0.63718    |   1.7 |  3.53
Comm    | 0.41168    | 0.54129    | 0.67849    |  10.4 |  3.14
Output  | 9.7223     | 10.011     | 14.288     |  34.9 | 58.14
Modify  | 0.020438   | 4.2981     | 4.5864     |  53.3 | 24.96
Other   |            | 0.006895   |            |       |  0.04

Nlocal:    62.5 ave 69 max 57 min
Histogram: 2 0 4 2 0 3 2 1 1 1
Nghost:    1862.5 ave 1886 max 1840 min
Histogram: 2 0 2 0 4 3 2 2 0 1
Neighs:    0 ave 0 max 0 min
Histogram: 16 0 0 0 0 0 0 0 0 0
FullNghs:  18981.5 ave 21012 max 17444 min
Histogram: 2 1 4 1 1 2 2 1 1 1

Total # of neighbors = 303704
Ave neighs/atom = 303.704
Neighbor list builds = 1000
Dangerous builds not checked
Setting up Verlet run ...
  Unit style    : real
  Current step  : 6000
  Time step     : 1
Per MPI rank memory allocation (min/avg/max) = 4.578 | 4.579 | 4.579 Mbytes
Step Temp E_pair E_mol TotEng Press Volume Lx Ly Lz S/CPU 
    6000    298.68737   -10467.748            0   -9578.3081   -3211.9101    777.31404    9.1945858    9.1945858    9.1945858            0 
    6100    294.17696   -10448.147            0   -9572.1381    4220.3093    778.87878    9.2007513    9.2007513    9.2007513    60.641203 
    6200    303.56228   -10472.174            0   -9568.2171    5850.6849    780.82472    9.2084072    9.2084072    9.2084072    52.159427 
    6300    300.39178   -10458.324            0   -9563.8087   -4047.1072    782.89491    9.2165381    9.2165381    9.2165381    45.533342 
    6400    303.24756   -10461.735            0    -9558.716    2956.1108     784.7352     9.223754     9.223754     9.223754    60.673663 
    6500    300.74033   -10448.874            0   -9553.3203   -6514.0943    786.50498    9.2306828    9.2306828    9.2306828    51.219034 
    6600    304.93287   -10455.452            0   -9547.4144   -14397.682    787.70085    9.2353588    9.2353588    9.2353588    63.486835 
    6700     300.5069   -10437.703            0   -9542.8446   -13533.894    788.09462    9.2368974    9.2368974    9.2368974    64.155395 
    6800      295.134   -10416.209            0   -9537.3507    7146.2784    787.89472    9.2361164    9.2361164    9.2361164    56.056308 
    6900    315.54979    -10473.19            0   -9533.5362   -3574.6502    787.15289    9.2332168    9.2332168    9.2332168    58.263961 
    7000     310.4396   -10454.093            0   -9529.6566   -510.55651    786.38348    9.2302074    9.2302074    9.2302074    58.452583 
Loop time of 17.7079 on 16 procs for 1000 steps with 1000 atoms

Performance: 4.879 ns/day, 4.919 hours/ns, 56.472 timesteps/s
94.5% CPU use with 16 MPI tasks x no OpenMP threads

MPI task timing breakdown:
Section |  min time  |  avg time  |  max time  |%varavg| %total
---------------------------------------------------------------
Pair    | 1.6693     | 1.7323     | 1.8844     |   3.9 |  9.78
Neigh   | 0.5892     | 0.60527    | 0.6539     |   2.0 |  3.42
Comm    | 0.33593    | 0.53607    | 0.61487    |   9.2 |  3.03
Output  | 9.9958     | 10.299     | 14.806     |  36.3 | 58.16
Modify  | 0.020141   | 4.5279     | 4.8316     |  54.7 | 25.57
Other   |            | 0.006874   |            |       |  0.04

Nlocal:    62.5 ave 68 max 57 min
Histogram: 2 1 1 4 2 1 0 1 0 4
Nghost:    1853.56 ave 1872 max 1839 min
Histogram: 1 3 2 2 2 1 2 1 1 1
Neighs:    0 ave 0 max 0 min
Histogram: 16 0 0 0 0 0 0 0 0 0
FullNghs:  18776.8 ave 20597 max 17364 min
Histogram: 3 1 2 3 2 0 1 0 1 3

Total # of neighbors = 300428
Ave neighs/atom = 300.428
Neighbor list builds = 1000
Dangerous builds not checked
Setting up Verlet run ...
  Unit style    : real
  Current step  : 7000
  Time step     : 1
Per MPI rank memory allocation (min/avg/max) = 4.578 | 4.579 | 4.579 Mbytes
Step Temp E_pair E_mol TotEng Press Volume Lx Ly Lz S/CPU 
    7000     310.4396   -10454.093            0   -9529.6566   -510.55651    786.38348    9.2302074    9.2302074    9.2302074            0 
    7100    303.69481   -10429.899            0   -9525.5476    8776.7094     786.2178    9.2295591    9.2295591    9.2295591    62.220733 
    7200    310.38929   -10450.749            0   -9526.4627    8003.3724    786.65903    9.2312854    9.2312854    9.2312854    45.171441 
    7300     295.5358   -10407.172            0   -9527.1164    4319.1892    787.09313    9.2329831    9.2329831    9.2329831    44.988312 
    7400    299.62723   -10422.179            0   -9529.9404    3084.4551    787.87885    9.2360544    9.2360544    9.2360544     49.47893 
    7500    314.68402   -10473.132            0   -9536.0568   -12780.888    788.70152    9.2392679    9.2392679    9.2392679     55.66028 
    7600    297.99015   -10429.962            0   -9542.5978   -4423.8139     789.1156    9.2408845    9.2408845    9.2408845    55.092693 
    7700    290.07494   -10416.374            0   -9552.5799   -14412.717    789.48029    9.2423079    9.2423079    9.2423079    52.907361 
    7800    304.41288   -10469.097            0   -9562.6078   -1960.1501     789.4377    9.2421416    9.2421416    9.2421416    65.214361 
    7900    299.39117   -10465.176            0   -9573.6402   -4958.5685    788.96303    9.2402889    9.2402889    9.2402889    47.844152 
    8000    296.50742   -10466.022            0   -9583.0739   -11659.164    787.97432    9.2364274    9.2364274    9.2364274    56.676406 
Loop time of 18.9546 on 16 procs for 1000 steps with 1000 atoms

Performance: 4.558 ns/day, 5.265 hours/ns, 52.758 timesteps/s
94.5% CPU use with 16 MPI tasks x no OpenMP threads

MPI task timing breakdown:
Section |  min time  |  avg time  |  max time  |%varavg| %total
---------------------------------------------------------------
Pair    | 1.646      | 1.7166     | 1.865      |   4.4 |  9.06
Neigh   | 0.5845     | 0.60471    | 0.64428    |   1.9 |  3.19
Comm    | 0.4089     | 0.59665    | 0.68867    |   9.3 |  3.15
Output  | 11.399     | 11.69      | 16.008     |  32.6 | 61.68
Modify  | 0.020298   | 4.3394     | 4.6308     |  53.5 | 22.89
Other   |            | 0.006903   |            |       |  0.04

Nlocal:    62.5 ave 66 max 57 min
Histogram: 1 1 1 1 1 2 2 3 1 3
Nghost:    1863.81 ave 1908 max 1824 min
Histogram: 2 2 1 1 2 4 0 1 2 1
Neighs:    0 ave 0 max 0 min
Histogram: 16 0 0 0 0 0 0 0 0 0
FullNghs:  18726.1 ave 19999 max 16905 min
Histogram: 2 1 1 1 0 2 1 5 1 2

Total # of neighbors = 299618
Ave neighs/atom = 299.618
Neighbor list builds = 1000
Dangerous builds not checked
Setting up Verlet run ...
  Unit style    : real
  Current step  : 8000
  Time step     : 1
Per MPI rank memory allocation (min/avg/max) = 4.578 | 4.579 | 4.579 Mbytes
Step Temp E_pair E_mol TotEng Press Volume Lx Ly Lz S/CPU 
    8000    296.50742   -10466.022            0   -9583.0739   -11659.164    787.97432    9.2364274    9.2364274    9.2364274            0 
    8100    292.04742   -10461.756            0   -9592.0891    19263.094    786.45906    9.2305031    9.2305031    9.2305031    58.669495 
    8200    304.96252    -10508.14            0   -9600.0133    -2258.832    784.94195     9.224564     9.224564     9.224564    49.970421 
    8300    301.46442   -10503.987            0    -9606.277    9696.3702    783.36545    9.2183842    9.2183842    9.2183842    26.127192 
    8400    304.19385   -10518.051            0   -9612.2138   -12825.346    782.30192    9.2142105    9.2142105    9.2142105     45.14371 
    8500    285.60618   -10466.474            0   -9615.9876    8324.4887    781.15537    9.2097069    9.2097069    9.2097069    60.276203 
    8600    296.37909   -10505.544            0   -9622.9779     8858.895     780.2283    9.2060621    9.2060621    9.2060621    53.051819 
    8700    298.84679   -10517.565            0   -9627.6501    2661.5291    779.68058    9.2039074    9.2039074    9.2039074    52.437957 
    8800    296.71012   -10516.221            0   -9632.6691    7375.7314     779.2014    9.2020215    9.2020215    9.2020215    55.165901 
    8900    292.07599   -10505.406            0   -9635.6535    6107.7989    779.03002    9.2013468    9.2013468    9.2013468    64.355735 
    9000    282.49111   -10480.439            0   -9639.2288   -4513.8924    778.98256    9.2011599    9.2011599    9.2011599    56.232755 
Loop time of 20.3441 on 16 procs for 1000 steps with 1000 atoms

Performance: 4.247 ns/day, 5.651 hours/ns, 49.154 timesteps/s
94.4% CPU use with 16 MPI tasks x no OpenMP threads

MPI task timing breakdown:
Section |  min time  |  avg time  |  max time  |%varavg| %total
---------------------------------------------------------------
Pair    | 1.6739     | 1.742      | 1.8333     |   3.3 |  8.56
Neigh   | 0.58677    | 0.60663    | 0.64118    |   1.6 |  2.98
Comm    | 0.44212    | 0.56799    | 0.65683    |   7.3 |  2.79
Output  | 12.682     | 12.98      | 17.4       |  31.7 | 63.80
Modify  | 0.020226   | 4.4406     | 4.7385     |  54.2 | 21.83
Other   |            | 0.006912   |            |       |  0.03

Nlocal:    62.5 ave 68 max 56 min
Histogram: 2 0 2 0 1 5 1 2 0 3
Nghost:    1861.06 ave 1879 max 1839 min
Histogram: 1 1 1 1 3 2 1 2 3 1
Neighs:    0 ave 0 max 0 min
Histogram: 16 0 0 0 0 0 0 0 0 0
FullNghs:  18936.9 ave 20706 max 16965 min
Histogram: 2 0 2 1 2 3 2 1 1 2

Total # of neighbors = 302990
Ave neighs/atom = 302.99
Neighbor list builds = 1000
Dangerous builds not checked
Setting up Verlet run ...
  Unit style    : real
  Current step  : 9000
  Time step     : 1
Per MPI rank memory allocation (min/avg/max) = 4.578 | 4.579 | 4.579 Mbytes
Step Temp E_pair E_mol TotEng Press Volume Lx Ly Lz S/CPU 
    9000    282.49111   -10480.439            0   -9639.2288   -4513.8924    778.98256    9.2011599    9.2011599    9.2011599            0 
    9100     291.2469   -10508.781            0   -9641.4975   -1954.8463    778.84772     9.200629     9.200629     9.200629    64.973142 
    9200     282.2174   -10482.347            0   -9641.9516   -12917.188    778.56852    9.1995294    9.1995294    9.1995294    53.433765 
    9300    298.97728   -10531.778            0   -9641.4746    8126.2791    777.95124    9.1970975    9.1970975    9.1970975    53.282355 
    9400    296.37606   -10522.332            0   -9639.7743     9215.093    777.59858    9.1957076    9.1957076    9.1957076    49.455227 
    9500    298.02535   -10524.879            0     -9637.41    1664.3223    777.96231    9.1971412    9.1971412    9.1971412    67.229743 
    9600    295.31799   -10513.583            0   -9634.1766    390.40048    779.07633    9.2015291    9.2015291    9.2015291    58.707928 
    9700    291.58099   -10497.649            0   -9629.3704    8056.4515    780.61884    9.2075979    9.2075979    9.2075979    66.332145 
    9800    301.13776   -10519.117            0   -9622.3799    826.23007    782.49903    9.2149844    9.2149844    9.2149844    56.030522 
    9900    297.55133   -10496.875            0   -9610.8179   -3303.8297    784.43914    9.2225939    9.2225939    9.2225939    55.595312 
   10000    304.63762   -10501.045            0   -9593.8861   -1375.3948    786.16573    9.2293554    9.2293554    9.2293554     55.78926 
Loop time of 17.3837 on 16 procs for 1000 steps with 1000 atoms

Performance: 4.970 ns/day, 4.829 hours/ns, 57.525 timesteps/s
94.5% CPU use with 16 MPI tasks x no OpenMP threads

MPI task timing breakdown:
Section |  min time  |  avg time  |  max time  |%varavg| %total
---------------------------------------------------------------
Pair    | 1.674      | 1.7489     | 1.8739     |   4.5 | 10.06
Neigh   | 0.58976    | 0.60843    | 0.65724    |   2.0 |  3.50
Comm    | 0.41368    | 0.58713    | 0.67678    |   9.5 |  3.38
Output  | 9.2733     | 9.5976     | 14.411     |  40.1 | 55.21
Modify  | 0.020597   | 4.8348     | 5.159      |  56.5 | 27.81
Other   |            | 0.006943   |            |       |  0.04

Nlocal:    62.5 ave 69 max 54 min
Histogram: 1 1 1 0 3 1 3 2 2 2
Nghost:    1868.56 ave 1883 max 1850 min
Histogram: 2 0 1 0 1 5 3 0 2 2
Neighs:    0 ave 0 max 0 min
Histogram: 16 0 0 0 0 0 0 0 0 0
FullNghs:  18792.5 ave 20670 max 16157 min
Histogram: 1 1 1 0 2 3 2 2 2 2

Total # of neighbors = 300680
Ave neighs/atom = 300.68
Neighbor list builds = 1000
Dangerous builds not checked
Setting up Verlet run ...
  Unit style    : real
  Current step  : 10000
  Time step     : 1
Per MPI rank memory allocation (min/avg/max) = 4.578 | 4.579 | 4.579 Mbytes
Step Temp E_pair E_mol TotEng Press Volume Lx Ly Lz S/CPU 
   10000    304.63762   -10501.045            0   -9593.8861   -1375.3948    786.16573    9.2293554    9.2293554    9.2293554            0 
   10100    300.78232   -10467.411            0   -9571.7323   -12063.572    787.95404    9.2363482    9.2363482    9.2363482    44.279305 
   10200    322.76593   -10515.283            0   -9554.1414   -8394.1371    789.50093    9.2423884    9.2423884    9.2423884    54.061083 
   10300    301.90536   -10441.051            0   -9542.0283   -7233.9252     790.5198    9.2463625    9.2463625    9.2463625    63.747014 
   10400     316.2032   -10479.564            0   -9537.9647    902.31819    790.65062    9.2468726    9.2468726    9.2468726    50.047037 
   10500    298.75485   -10424.149            0   -9534.5078   -7471.9111    790.14113    9.2448859    9.2448859    9.2448859    87.379144 
   10600    304.74411   -10444.229            0   -9536.7534   -6976.9554    789.04712    9.2406172    9.2406172    9.2406172    57.859456 
   10700    307.12547   -10453.314            0   -9538.7466   -7488.8418    787.26472     9.233654     9.233654     9.233654    69.458418 
   10800    309.06662   -10463.915            0   -9543.5675   -4173.9767      785.213    9.2256256    9.2256256    9.2256256    49.606464 
   10900    308.12948   -10467.016            0    -9549.459    4930.1102    783.25436    9.2179484    9.2179484    9.2179484    66.327791 
   11000    299.85974   -10448.854            0   -9555.9225    9285.0633    781.51512    9.2111205    9.2111205    9.2111205    39.929121 
Loop time of 18.0154 on 16 procs for 1000 steps with 1000 atoms

Performance: 4.796 ns/day, 5.004 hours/ns, 55.508 timesteps/s
94.5% CPU use with 16 MPI tasks x no OpenMP threads

MPI task timing breakdown:
Section |  min time  |  avg time  |  max time  |%varavg| %total
---------------------------------------------------------------
Pair    | 1.6249     | 1.7145     | 1.8199     |   3.7 |  9.52
Neigh   | 0.57943    | 0.60391    | 0.64355    |   1.9 |  3.35
Comm    | 0.38829    | 0.53332    | 0.64681    |   8.5 |  2.96
Output  | 10.47      | 10.764     | 15.136     |  34.4 | 59.75
Modify  | 0.020405   | 4.3924     | 4.6872     |  53.9 | 24.38
Other   |            | 0.00687    |            |       |  0.04

Nlocal:    62.5 ave 67 max 58 min
Histogram: 1 0 3 1 4 1 3 1 1 1
Nghost:    1848.5 ave 1876 max 1812 min
Histogram: 2 0 1 2 1 1 3 2 1 3
Neighs:    0 ave 0 max 0 min
Histogram: 16 0 0 0 0 0 0 0 0 0
FullNghs:  18888.9 ave 20453 max 17414 min
Histogram: 1 1 3 1 1 4 3 0 0 2

Total # of neighbors = 302222
Ave neighs/atom = 302.222
Neighbor list builds = 1000
Dangerous builds not checked
Setting up Verlet run ...
  Unit style    : real
  Current step  : 11000
  Time step     : 1
Per MPI rank memory allocation (min/avg/max) = 4.578 | 4.579 | 4.579 Mbytes
Step Temp E_pair E_mol TotEng Press Volume Lx Ly Lz S/CPU 
   11000    299.85974   -10448.854            0   -9555.9225    9285.0633    781.51512    9.2111205    9.2111205    9.2111205            0 
   11100    302.45622    -10463.84            0   -9563.1772    6245.8593    780.46818    9.2070055    9.2070055    9.2070055    50.167901 
   11200    301.25472    -10468.13            0   -9571.0452    10065.698     780.2549    9.2061667    9.2061667    9.2061667     56.65352 
   11300    293.64688   -10454.882            0   -9580.4518   -10106.748    780.28011    9.2062658    9.2062658    9.2062658    58.230575 
   11400    294.29586   -10464.648            0   -9588.2856     6054.372    780.05203    9.2053687    9.2053687    9.2053687    43.648353 
   11500    285.79656   -10447.229            0   -9596.1753   -3778.6519    780.57672    9.2074323    9.2074323    9.2074323    43.093039 
   11600    298.62368   -10492.818            0    -9603.568    18233.417    781.71523    9.2119066    9.2119066    9.2119066     62.18858 
   11700    299.92812   -10502.242            0   -9609.1074    6312.2524    783.15869    9.2175731    9.2175731    9.2175731    56.142694 
   11800    296.03597   -10495.569            0   -9614.0243    6968.1486    784.62765    9.2233326    9.2233326    9.2233326    42.538624 
   11900     300.2275   -10512.802            0   -9618.7759   -7518.2951     786.1489    9.2292895    9.2292895    9.2292895    61.180425 
   12000    293.40847   -10494.679            0    -9620.959   -3410.3395    787.53969    9.2347289    9.2347289    9.2347289    62.472839 
Loop time of 19.0625 on 16 procs for 1000 steps with 1000 atoms

Performance: 4.532 ns/day, 5.295 hours/ns, 52.459 timesteps/s
94.5% CPU use with 16 MPI tasks x no OpenMP threads

MPI task timing breakdown:
Section |  min time  |  avg time  |  max time  |%varavg| %total
---------------------------------------------------------------
Pair    | 1.6473     | 1.741      | 1.9031     |   4.5 |  9.13
Neigh   | 0.58895    | 0.60618    | 0.66236    |   2.3 |  3.18
Comm    | 0.3726     | 0.59084    | 0.70023    |   9.9 |  3.10
Output  | 11.1       | 11.416     | 16.096     |  35.8 | 59.89
Modify  | 0.02045    | 4.7017     | 5.0171     |  55.7 | 24.66
Other   |            | 0.006904   |            |       |  0.04

Nlocal:    62.5 ave 71 max 58 min
Histogram: 3 1 5 3 0 1 1 1 0 1
Nghost:    1849.62 ave 1860 max 1834 min
Histogram: 1 0 0 2 2 2 4 0 4 1
Neighs:    0 ave 0 max 0 min
Histogram: 16 0 0 0 0 0 0 0 0 0
FullNghs:  18739.8 ave 21389 max 17250 min
Histogram: 1 3 5 2 1 1 1 1 0 1

Total # of neighbors = 299836
Ave neighs/atom = 299.836
Neighbor list builds = 1000
Dangerous builds not checked
Setting up Verlet run ...
  Unit style    : real
  Current step  : 12000
  Time step     : 1
Per MPI rank memory allocation (min/avg/max) = 4.578 | 4.579 | 4.579 Mbytes
Step Temp E_pair E_mol TotEng Press Volume Lx Ly Lz S/CPU 
   12000    293.40847   -10494.679            0    -9620.959   -3410.3395    787.53969    9.2347289    9.2347289    9.2347289            0 
   12100    296.59293   -10506.047            0   -9622.8438   -16670.654    788.46058     9.238327     9.238327     9.238327    47.211055 
   12200    296.24659   -10504.442            0   -9622.2703   -22060.716    788.26276    9.2375543    9.2375543    9.2375543    56.001384 
   12300    294.87889   -10499.731            0   -9621.6319     734.2646    786.69469    9.2314249    9.2314249    9.2314249    60.731683 
   12400    285.09884   -10468.524            0   -9619.5484    1058.8818    784.47225    9.2227236    9.2227236    9.2227236    65.718471 
   12500    302.06494    -10518.34            0   -9618.8424     5667.962    781.91599    9.2126951    9.2126951    9.2126951    57.706177 
   12600    301.15644   -10513.972            0   -9617.1796   -3818.3182    779.57026    9.2034733    9.2034733    9.2034733    55.501042 
   12700    303.52966   -10518.628            0   -9614.7686    10361.777    777.50374    9.1953337    9.1953337    9.1953337    49.545589 
   12800    298.16087   -10498.779            0   -9610.9066    8089.7019    776.13576    9.1899376    9.1899376    9.1899376    62.840873 
   12900    301.70691   -10506.377            0   -9607.9449    1654.9209    775.60111    9.1878269    9.1878269    9.1878269    54.973863 
   13000    298.17997   -10490.638            0   -9602.7088     6518.016    775.76017     9.188455     9.188455     9.188455    71.744819 
Loop time of 17.4293 on 16 procs for 1000 steps with 1000 atoms

Performance: 4.957 ns/day, 4.841 hours/ns, 57.375 timesteps/s
94.5% CPU use with 16 MPI tasks x no OpenMP threads

MPI task timing breakdown:
Section |  min time  |  avg time  |  max time  |%varavg| %total
---------------------------------------------------------------
Pair    | 1.6389     | 1.7433     | 1.9265     |   4.7 | 10.00
Neigh   | 0.59052    | 0.60611    | 0.65423    |   1.9 |  3.48
Comm    | 0.3437     | 0.5746     | 0.69392    |  10.0 |  3.30
Output  | 9.869      | 10.16      | 14.477     |  35.0 | 58.29
Modify  | 0.020267   | 4.3384     | 4.6294     |  53.5 | 24.89
Other   |            | 0.006897   |            |       |  0.04

Nlocal:    62.5 ave 68 max 57 min
Histogram: 2 1 0 2 2 3 3 1 1 1
Nghost:    1867.81 ave 1886 max 1855 min
Histogram: 3 1 1 2 4 2 0 1 1 1
Neighs:    0 ave 0 max 0 min
Histogram: 16 0 0 0 0 0 0 0 0 0
FullNghs:  19032.6 ave 20767 max 17291 min
Histogram: 1 1 1 1 3 3 3 1 1 1

Total # of neighbors = 304522
Ave neighs/atom = 304.522
Neighbor list builds = 1000
Dangerous builds not checked
Setting up Verlet run ...
  Unit style    : real
  Current step  : 13000
  Time step     : 1
Per MPI rank memory allocation (min/avg/max) = 4.578 | 4.579 | 4.579 Mbytes
Step Temp E_pair E_mol TotEng Press Volume Lx Ly Lz S/CPU 
   13000    298.17997   -10490.638            0   -9602.7088     6518.016    775.76017     9.188455     9.188455     9.188455            0 
   13100     296.0204   -10476.475            0   -9594.9772    10936.975    776.82826    9.1926701    9.1926701    9.1926701    64.410113 
   13200    312.03565    -10514.54            0   -9585.3512   -2445.6583    778.59055    9.1996162    9.1996162    9.1996162    48.033296 
   13300    293.39198   -10446.048            0   -9572.3767    9861.4143    780.59477    9.2075032    9.2075032    9.2075032    54.384584 
   13400    306.24219   -10473.484            0   -9561.5474    14164.196     783.2218    9.2178207    9.2178207    9.2178207    59.220662 
   13500    307.62021   -10466.861            0   -9550.8209    6948.1535    786.49413    9.2306403    9.2306403    9.2306403    50.060295 
   13600    305.67128   -10451.464            0   -9541.2268   -6304.6779    790.18811    9.2450691    9.2450691    9.2450691    59.618441 
   13700    308.15234   -10451.819            0   -9534.1939   -2200.0007    793.87876    9.2594401    9.2594401    9.2594401     52.70662 
   13800    299.22554   -10418.613            0   -9527.5704   -9038.1713     797.2564    9.2725533    9.2725533    9.2725533     60.14792 
   13900    326.01612   -10495.106            0   -9524.2861   -2321.1644    799.81805    9.2824738    9.2824738    9.2824738    58.516636 
   14000    305.98414   -10432.099            0   -9520.9302   -20387.661     800.8748    9.2865601    9.2865601    9.2865601    58.107902 
Loop time of 17.8264 on 16 procs for 1000 steps with 1000 atoms

Performance: 4.847 ns/day, 4.952 hours/ns, 56.096 timesteps/s
94.5% CPU use with 16 MPI tasks x no OpenMP threads

MPI task timing breakdown:
Section |  min time  |  avg time  |  max time  |%varavg| %total
---------------------------------------------------------------
Pair    | 1.6514     | 1.7182     | 1.8508     |   3.6 |  9.64
Neigh   | 0.58807    | 0.6038     | 0.64559    |   1.7 |  3.39
Comm    | 0.38183    | 0.55593    | 0.6359     |   7.9 |  3.12
Output  | 10.484     | 10.764     | 14.921     |  32.7 | 60.38
Modify  | 0.020218   | 4.1773     | 4.4576     |  52.5 | 23.43
Other   |            | 0.006883   |            |       |  0.04

Nlocal:    62.5 ave 67 max 57 min
Histogram: 1 0 0 2 3 2 2 3 1 2
Nghost:    1839.38 ave 1861 max 1822 min
Histogram: 2 1 0 4 1 5 2 0 0 1
Neighs:    0 ave 0 max 0 min
Histogram: 16 0 0 0 0 0 0 0 0 0
FullNghs:  18423.2 ave 19633 max 16646 min
Histogram: 1 0 0 2 3 2 2 3 1 2

Total # of neighbors = 294772
Ave neighs/atom = 294.772
Neighbor list builds = 1000
Dangerous builds not checked
Setting up Verlet run ...
  Unit style    : real
  Current step  : 14000
  Time step     : 1
Per MPI rank memory allocation (min/avg/max) = 4.578 | 4.579 | 4.579 Mbytes
Step Temp E_pair E_mol TotEng Press Volume Lx Ly Lz S/CPU 
   14000    305.98414   -10432.099            0   -9520.9302   -20387.661     800.8748    9.2865601    9.2865601    9.2865601            0 
   14100    291.48956   -10387.514            0   -9519.5074   -21366.737    800.00105    9.2831817    9.2831817    9.2831817    62.098423 
   14200    306.38145   -10431.932            0   -9519.5798    11100.815     797.9812    9.2753624    9.2753624    9.2753624    60.366738 
   14300     312.3004   -10449.331            0   -9519.3535   -5736.7792    796.00873    9.2677137    9.2677137    9.2677137    70.294391 
   14400    309.09094   -10440.854            0   -9520.4344     699.5492    793.80856    9.2591672    9.2591672    9.2591672    47.569132 
   14500    313.64885   -10459.987            0   -9525.9945   -1487.7516    791.44679    9.2499753    9.2499753    9.2499753    56.979145 
   14600    311.01965   -10458.336            0   -9532.1728   -332.71687    789.25571    9.2414314    9.2414314    9.2414314    41.156447 
   14700    299.61316   -10433.722            0    -9541.525    14516.716    787.32895    9.2339051    9.2339051    9.2339051    68.935678 
   14800    300.43648   -10447.779            0   -9553.1301   -4950.0498    785.97769    9.2286195    9.2286195    9.2286195    51.755064 
   14900    307.58414   -10483.487            0   -9567.5543   -12976.812    784.93783    9.2245478    9.2245478    9.2245478    74.306515 
   15000    298.25934   -10467.641            0    -9579.476     8926.597    784.15448    9.2214782    9.2214782    9.2214782    59.319213 
Loop time of 17.3909 on 16 procs for 1000 steps with 1000 atoms

Performance: 4.968 ns/day, 4.831 hours/ns, 57.501 timesteps/s
94.5% CPU use with 16 MPI tasks x no OpenMP threads

MPI task timing breakdown:
Section |  min time  |  avg time  |  max time  |%varavg| %total
---------------------------------------------------------------
Pair    | 1.6326     | 1.6992     | 1.801      |   2.8 |  9.77
Neigh   | 0.58723    | 0.60303    | 0.64734    |   1.6 |  3.47
Comm    | 0.43716    | 0.58336    | 0.66653    |   6.3 |  3.35
Output  | 9.7807     | 10.077     | 14.477     |  35.8 | 57.95
Modify  | 0.020936   | 4.4212     | 4.7177     |  54.0 | 25.42
Other   |            | 0.006828   |            |       |  0.04

Nlocal:    62.5 ave 68 max 56 min
Histogram: 1 2 0 1 2 4 1 1 3 1
Nghost:    1855.75 ave 1875 max 1834 min
Histogram: 2 2 1 1 2 1 0 2 3 2
Neighs:    0 ave 0 max 0 min
Histogram: 16 0 0 0 0 0 0 0 0 0
FullNghs:  18821.1 ave 20527 max 16759 min
Histogram: 1 2 0 1 3 2 1 2 3 1

Total # of neighbors = 301138
Ave neighs/atom = 301.138
Neighbor list builds = 1000
Dangerous builds not checked
Setting up Verlet run ...
  Unit style    : real
  Current step  : 15000
  Time step     : 1
Per MPI rank memory allocation (min/avg/max) = 4.578 | 4.579 | 4.579 Mbytes
Step Temp E_pair E_mol TotEng Press Volume Lx Ly Lz S/CPU 
   15000    298.25934   -10467.641            0    -9579.476     8926.597    784.15448    9.2214782    9.2214782    9.2214782            0 
   15100    297.68386   -10477.373            0   -9590.9216   -881.00135    783.77167    9.2199774    9.2199774    9.2199774     69.34929 
   15200    298.52991   -10488.195            0   -9599.2237     16670.87    784.02541    9.2209722    9.2209722    9.2209722    57.335887 
   15300    302.01311   -10504.317            0   -9604.9734    15341.402    785.22197    9.2256607    9.2256607    9.2256607    75.993986 
   15400    304.38346   -10516.613            0   -9610.2111    7223.6635     787.0522     9.232823     9.232823     9.232823    50.571695 
   15500    301.88637    -10512.55            0   -9613.5838    1252.7709    789.46269    9.2422392    9.2422392    9.2422392    74.040502 
   15600     306.1288   -10526.931            0   -9615.3314   -14196.765    792.01122    9.2521737    9.2521737    9.2521737    58.360021 
   15700    292.81213   -10488.428            0   -9616.4831   -9233.0772    794.30029    9.2610787    9.2610787    9.2610787    70.192225 
   15800    286.62795   -10471.814            0   -9618.2853   -28295.447    795.63413    9.2662597    9.2662597    9.2662597    48.440573 
   15900    302.54698   -10522.089            0   -9621.1559   -13353.272    795.75835    9.2667419    9.2667419    9.2667419    71.956486 
   16000    299.12829   -10513.026            0   -9622.2728   -15096.137    794.76589    9.2628879    9.2628879    9.2628879    50.590991 
Loop time of 16.3989 on 16 procs for 1000 steps with 1000 atoms

Performance: 5.269 ns/day, 4.555 hours/ns, 60.980 timesteps/s
94.6% CPU use with 16 MPI tasks x no OpenMP threads

MPI task timing breakdown:
Section |  min time  |  avg time  |  max time  |%varavg| %total
---------------------------------------------------------------
Pair    | 1.622      | 1.7042     | 1.7781     |   3.1 | 10.39
Neigh   | 0.58734    | 0.6036     | 0.63642    |   1.4 |  3.68
Comm    | 0.45046    | 0.55715    | 0.65532    |   6.6 |  3.40
Output  | 8.9111     | 9.2013     | 13.506     |  36.6 | 56.11
Modify  | 0.020379   | 4.3258     | 4.6161     |  53.4 | 26.38
Other   |            | 0.006863   |            |       |  0.04

Nlocal:    62.5 ave 64 max 58 min
Histogram: 1 0 0 0 0 2 3 0 6 4
Nghost:    1847.5 ave 1860 max 1841 min
Histogram: 3 2 3 1 4 1 0 1 0 1
Neighs:    0 ave 0 max 0 min
Histogram: 16 0 0 0 0 0 0 0 0 0
FullNghs:  18596.9 ave 19099 max 17046 min
Histogram: 1 0 0 0 0 3 1 2 4 5

Total # of neighbors = 297550
Ave neighs/atom = 297.55
Neighbor list builds = 1000
Dangerous builds not checked
Setting up Verlet run ...
  Unit style    : real
  Current step  : 16000
  Time step     : 1
Per MPI rank memory allocation (min/avg/max) = 4.578 | 4.579 | 4.579 Mbytes
Step Temp E_pair E_mol TotEng Press Volume Lx Ly Lz S/CPU 
   16000    299.12829   -10513.026            0   -9622.2728   -15096.137    794.76589    9.2628879    9.2628879    9.2628879            0 
   16100    298.30135   -10509.433            0   -9621.1422    1370.4279    792.86094    9.2554813    9.2554813    9.2554813    50.846839 
   16200    286.09859   -10470.496            0   -9618.5433    -15116.45    790.51632     9.246349     9.246349     9.246349    51.992407 
   16300    310.89409   -10544.135            0   -9618.3456    3002.5973    787.40771     9.234213     9.234213     9.234213    51.692549 
   16400    302.10532   -10514.185            0   -9614.5665     8118.942    784.26386    9.2219069    9.2219069    9.2219069    68.055154 
   16500    305.32971   -10521.931            0   -9612.7112    -2912.481    781.63401    9.2115875    9.2115875    9.2115875    48.737116 
   16600    295.01892   -10486.998            0   -9608.4817    16137.773    779.47824    9.2031111    9.2031111    9.2031111    46.568126 
   16700    299.41475   -10497.716            0     -9606.11   -469.13319    777.95222    9.1971014    9.1971014    9.1971014    51.320811 
   16800    295.89389   -10483.252            0   -9602.1301    11799.848     776.7681    9.1924327    9.1924327    9.1924327    62.155536 
   16900    303.40162    -10501.43            0   -9597.9519    8665.8344    775.81373    9.1886665    9.1886665    9.1886665    51.508922 
   17000    300.81419   -10488.713            0   -9592.9397    16351.785     775.3866    9.1869799    9.1869799    9.1869799    61.484283 
Loop time of 18.6184 on 16 procs for 1000 steps with 1000 atoms

Performance: 4.641 ns/day, 5.172 hours/ns, 53.710 timesteps/s
94.5% CPU use with 16 MPI tasks x no OpenMP threads

MPI task timing breakdown:
Section |  min time  |  avg time  |  max time  |%varavg| %total
---------------------------------------------------------------
Pair    | 1.6736     | 1.7376     | 1.8316     |   2.9 |  9.33
Neigh   | 0.59337    | 0.60701    | 0.64891    |   1.7 |  3.26
Comm    | 0.4506     | 0.5864     | 0.66078    |   6.5 |  3.15
Output  | 10.781     | 11.089     | 15.659     |  35.4 | 59.56
Modify  | 0.020401   | 4.5918     | 4.9001     |  55.1 | 24.66
Other   |            | 0.006927   |            |       |  0.04

Nlocal:    62.5 ave 68 max 58 min
Histogram: 1 1 3 2 0 4 1 1 2 1
Nghost:    1866.06 ave 1883 max 1847 min
Histogram: 1 1 1 3 3 1 1 0 3 2
Neighs:    0 ave 0 max 0 min
Histogram: 16 0 0 0 0 0 0 0 0 0
FullNghs:  19019 ave 20706 max 17717 min
Histogram: 2 3 2 0 3 2 0 1 2 1

Total # of neighbors = 304304
Ave neighs/atom = 304.304
Neighbor list builds = 1000
Dangerous builds not checked
Setting up Verlet run ...
  Unit style    : real
  Current step  : 17000
  Time step     : 1
Per MPI rank memory allocation (min/avg/max) = 4.578 | 4.579 | 4.579 Mbytes
Step Temp E_pair E_mol TotEng Press Volume Lx Ly Lz S/CPU 
   17000    300.81419   -10488.713            0   -9592.9397    16351.785     775.3866    9.1869799    9.1869799    9.1869799            0 
   17100    299.18375   -10479.795            0   -9588.8768    14007.681    776.13773    9.1899454    9.1899454    9.1899454    55.698173 
   17200    309.27393   -10505.013            0   -9584.0476    7016.4785    778.11465    9.1977415    9.1977415    9.1977415    50.954558 
   17300    305.59797   -10488.787            0   -9578.7685    4494.5305    780.69939    9.2079145    9.2079145    9.2079145    53.833574 
   17400    305.08458   -10481.347            0   -9572.8569   -8261.4073    783.67437    9.2195958    9.2195958    9.2195958    54.971161 
   17500    314.32712   -10503.293            0   -9567.2803   -2587.1694    786.43399     9.230405     9.230405     9.230405    50.414394 
   17600    294.08833   -10437.194            0   -9561.4488   -11362.636    788.96713    9.2403049    9.2403049    9.2403049    57.144507 
   17700     302.0756   -10455.514            0   -9555.9842   -2603.8144    791.36126    9.2496421    9.2496421    9.2496421    59.702082 
   17800    299.46894   -10442.183            0   -9550.4156   -7463.9943    793.37062    9.2574641    9.2574641    9.2574641    65.066004 
   17900    312.13155   -10474.931            0   -9545.4564   -10168.297    794.92964     9.263524     9.263524     9.263524    54.183059 
   18000     303.2324   -10443.056            0   -9540.0815   -20327.308      795.382    9.2652808    9.2652808    9.2652808    61.704593 
Loop time of 17.8463 on 16 procs for 1000 steps with 1000 atoms

Performance: 4.841 ns/day, 4.957 hours/ns, 56.034 timesteps/s
94.5% CPU use with 16 MPI tasks x no OpenMP threads

MPI task timing breakdown:
Section |  min time  |  avg time  |  max time  |%varavg| %total
---------------------------------------------------------------
Pair    | 1.6179     | 1.7246     | 1.7892     |   3.2 |  9.66
Neigh   | 0.58644    | 0.60624    | 0.64473    |   1.6 |  3.40
Comm    | 0.46024    | 0.56324    | 0.68956    |   7.0 |  3.16
Output  | 10.23      | 10.527     | 14.924     |  35.0 | 58.99
Modify  | 0.02041    | 4.4185     | 4.7151     |  54.0 | 24.76
Other   |            | 0.006892   |            |       |  0.04

Nlocal:    62.5 ave 66 max 57 min
Histogram: 1 1 0 0 2 4 3 2 0 3
Nghost:    1830.25 ave 1851 max 1809 min
Histogram: 2 0 0 3 2 3 3 2 0 1
Neighs:    0 ave 0 max 0 min
Histogram: 16 0 0 0 0 0 0 0 0 0
FullNghs:  18540.1 ave 19728 max 16889 min
Histogram: 1 1 0 1 2 3 4 1 1 2

Total # of neighbors = 296642
Ave neighs/atom = 296.642
Neighbor list builds = 1000
Dangerous builds not checked
Setting up Verlet run ...
  Unit style    : real
  Current step  : 18000
  Time step     : 1
Per MPI rank memory allocation (min/avg/max) = 4.578 | 4.579 | 4.579 Mbytes
Step Temp E_pair E_mol TotEng Press Volume Lx Ly Lz S/CPU 
   18000     303.2324   -10443.056            0   -9540.0815   -20327.308      795.382    9.2652808    9.2652808    9.2652808            0 
   18100    298.73975   -10426.041            0   -9536.4452   -10561.071    794.74219    9.2627958    9.2627958    9.2627958    74.575512 
   18200    303.03632   -10436.281            0   -9533.8909   -15404.612    793.58788    9.2583091    9.2583091    9.2583091    67.227579 
   18300    310.02477   -10454.675            0   -9531.4737   -2476.2212    791.72861    9.2510731    9.2510731    9.2510731    42.980144 
   18400    313.01327   -10464.512            0   -9532.4122    10459.409     789.4079    9.2420254    9.2420254    9.2420254    69.665537 
   18500    302.29864   -10433.979            0   -9533.7852    3318.1332    787.16588    9.2332676    9.2332676    9.2332676     51.10656 
   18600    305.88988   -10448.671            0   -9537.7828   -270.33631    785.26322    9.2258223    9.2258223    9.2258223    53.915618 
   18700    306.99324   -10459.469            0   -9545.2957    1644.4044    783.65378     9.219515     9.219515     9.219515    61.822784 
   18800    307.07115   -10469.927            0    -9555.522    15336.821    782.37023    9.2144787    9.2144787    9.2144787    51.454315 
   18900    300.93441    -10466.69            0   -9570.5591    14788.616    781.80972    9.2122777    9.2122777    9.2122777    69.964467 
   19000    299.59615   -10478.399            0    -9586.253   -5758.6272    782.05982    9.2132599    9.2132599    9.2132599     62.16467 
Loop time of 17.0009 on 16 procs for 1000 steps with 1000 atoms

Performance: 5.082 ns/day, 4.722 hours/ns, 58.820 timesteps/s
94.5% CPU use with 16 MPI tasks x no OpenMP threads

MPI task timing breakdown:
Section |  min time  |  avg time  |  max time  |%varavg| %total
---------------------------------------------------------------
Pair    | 1.6624     | 1.7144     | 1.781      |   2.5 | 10.08
Neigh   | 0.589      | 0.6041     | 0.63526    |   1.4 |  3.55
Comm    | 0.46415    | 0.54714    | 0.61447    |   5.8 |  3.22
Output  | 9.6152     | 9.899      | 14.107     |  34.5 | 58.23
Modify  | 0.0203     | 4.2293     | 4.513      |  52.8 | 24.88
Other   |            | 0.006886   |            |       |  0.04

Nlocal:    62.5 ave 68 max 56 min
Histogram: 2 1 1 1 2 2 1 2 1 3
Nghost:    1858.25 ave 1875 max 1842 min
Histogram: 3 0 3 1 1 0 3 2 2 1
Neighs:    0 ave 0 max 0 min
Histogram: 16 0 0 0 0 0 0 0 0 0
FullNghs:  18839.2 ave 20573 max 16816 min
Histogram: 2 1 1 2 2 0 2 2 2 2

Total # of neighbors = 301428
Ave neighs/atom = 301.428
Neighbor list builds = 1000
Dangerous builds not checked
Setting up Verlet run ...
  Unit style    : real
  Current step  : 19000
  Time step     : 1
Per MPI rank memory allocation (min/avg/max) = 4.578 | 4.579 | 4.579 Mbytes
Step Temp E_pair E_mol TotEng Press Volume Lx Ly Lz S/CPU 
   19000    299.59615   -10478.399            0    -9586.253   -5758.6272    782.05982    9.2132599    9.2132599    9.2132599            0 
   19100    299.12757   -10490.409            0   -9599.6583    1749.3178    782.17632    9.2137174    9.2137174    9.2137174    54.643849 
   19200    301.22449   -10507.069            0   -9610.0737    584.62587    782.38292    9.2145286    9.2145286    9.2145286    66.798444 
   19300    294.79012    -10494.25            0   -9616.4155   -8806.7501    782.59349    9.2153551    9.2153551    9.2153551    62.070165 
   19400    290.87154   -10486.491            0   -9620.3252    2337.7062    782.60587    9.2154038    9.2154038    9.2154038    53.192766 
   19500    294.30935   -10500.806            0   -9624.4026    4063.6722    783.27084    9.2180131    9.2180131    9.2180131    44.520217 
   19600    299.28643   -10515.637            0   -9624.4133    8869.2968    784.54608     9.223013     9.223013     9.223013    49.049963 
   19700    287.18395   -10478.502            0   -9623.3174   -5533.6335     786.3403    9.2300385    9.2300385    9.2300385     61.11217 
   19800     293.4569   -10494.087            0   -9620.2226   -11818.119    788.30386    9.2377148    9.2377148    9.2377148    52.666021 
   19900    281.38603   -10452.085            0   -9614.1651   -8951.6439    789.83255    9.2436823    9.2436823    9.2436823    52.953179 
   20000    280.98547   -10442.504            0   -9605.7768   -5246.7101    790.60717    9.2467032    9.2467032    9.2467032    61.175645 
Loop time of 18.1612 on 16 procs for 1000 steps with 1000 atoms

Performance: 4.757 ns/day, 5.045 hours/ns, 55.062 timesteps/s
94.5% CPU use with 16 MPI tasks x no OpenMP threads

MPI task timing breakdown:
Section |  min time  |  avg time  |  max time  |%varavg| %total
---------------------------------------------------------------
Pair    | 1.6765     | 1.7271     | 1.7812     |   2.5 |  9.51
Neigh   | 0.59346    | 0.60552    | 0.63687    |   1.3 |  3.33
Comm    | 0.4907     | 0.56074    | 0.62437    |   5.4 |  3.09
Output  | 10.206     | 10.524     | 15.24      |  37.5 | 57.95
Modify  | 0.020307   | 4.7368     | 5.0545     |  56.0 | 26.08
Other   |            | 0.006918   |            |       |  0.04

Nlocal:    62.5 ave 67 max 59 min
Histogram: 2 0 3 3 0 4 1 2 0 1
Nghost:    1846.06 ave 1873 max 1826 min
Histogram: 2 1 4 0 3 1 3 1 0 1
Neighs:    0 ave 0 max 0 min
Histogram: 16 0 0 0 0 0 0 0 0 0
FullNghs:  18695.2 ave 19919 max 17235 min
Histogram: 1 1 1 1 3 3 2 1 1 2

Total # of neighbors = 299124
Ave neighs/atom = 299.124
Neighbor list builds = 1000
Dangerous builds not checked
Setting up Verlet run ...
  Unit style    : real
  Current step  : 20000
  Time step     : 1
Per MPI rank memory allocation (min/avg/max) = 4.578 | 4.579 | 4.579 Mbytes
Step Temp E_pair E_mol TotEng Press Volume Lx Ly Lz S/CPU 
   20000    280.98547   -10442.504            0   -9605.7768   -5246.7101    790.60717    9.2467032    9.2467032    9.2467032            0 
   20100     296.1541   -10480.081            0   -9598.1851   -20111.116     790.4238    9.2459882    9.2459882    9.2459882    77.012848 
   20200    297.70007   -10475.598            0   -9589.0981   -5226.5555    789.10292     9.240835     9.240835     9.240835    55.031021 
   20300    301.50796   -10478.223            0   -9580.3839    8231.6966    786.95119    9.2324281    9.2324281    9.2324281     73.41781 
   20400    293.83812   -10447.574            0   -9572.5741   -4448.4651    784.52701    9.2229382    9.2229382    9.2229382    53.387113 
   20500    309.78208   -10488.903            0    -9566.425    16067.415    781.64498    9.2116306    9.2116306    9.2116306    51.847874 
   20600     310.5205   -10485.272            0   -9560.5945     15937.09    779.11157    9.2016678    9.2016678    9.2016678    62.033151 
   20700    300.84842   -10453.046            0   -9557.1704    5855.5694    777.40526    9.1949455    9.1949455    9.1949455    66.259263 
   20800    299.98113   -10448.315            0   -9555.0228    9712.8016    776.18693    9.1901396    9.1901396    9.1901396    68.179773 
   20900    304.59929   -10463.614            0   -9556.5698     23734.46    775.99012    9.1893628    9.1893628    9.1893628    61.855556 
   21000    321.17337   -10516.033            0   -9559.6335    16389.686    777.03746    9.1934952    9.1934952    9.1934952    69.845571 
Loop time of 15.9159 on 16 procs for 1000 steps with 1000 atoms

Performance: 5.429 ns/day, 4.421 hours/ns, 62.830 timesteps/s
94.6% CPU use with 16 MPI tasks x no OpenMP threads

MPI task timing breakdown:
Section |  min time  |  avg time  |  max time  |%varavg| %total
---------------------------------------------------------------
Pair    | 1.6504     | 1.7401     | 1.8393     |   3.8 | 10.93
Neigh   | 0.59131    | 0.60661    | 0.64595    |   1.7 |  3.81
Comm    | 0.42006    | 0.55867    | 0.66112    |   8.1 |  3.51
Output  | 8.825      | 9.088      | 12.983     |  33.4 | 57.10
Modify  | 0.02048    | 3.9156     | 4.1786     |  50.8 | 24.60
Other   |            | 0.006918   |            |       |  0.04

Nlocal:    62.5 ave 66 max 58 min
Histogram: 1 0 3 1 0 2 3 3 2 1
Nghost:    1874.69 ave 1891 max 1857 min
Histogram: 1 1 3 1 1 3 2 0 2 2
Neighs:    0 ave 0 max 0 min
Histogram: 16 0 0 0 0 0 0 0 0 0
FullNghs:  19007.8 ave 20104 max 17592 min
Histogram: 1 0 3 0 2 2 3 2 2 1

Total # of neighbors = 304124
Ave neighs/atom = 304.124
Neighbor list builds = 1000
Dangerous builds not checked
Setting up Verlet run ...
  Unit style    : real
  Current step  : 21000
  Time step     : 1
Per MPI rank memory allocation (min/avg/max) = 4.578 | 4.579 | 4.579 Mbytes
Step Temp E_pair E_mol TotEng Press Volume Lx Ly Lz S/CPU 
   21000    321.17337   -10516.033            0   -9559.6335    16389.686    777.03746    9.1934952    9.1934952    9.1934952            0 
   21100    298.08722   -10449.756            0   -9562.1035    7679.0939    779.27367    9.2023059    9.2023059    9.2023059    50.773269 
   21200    297.52695    -10452.61            0    -9566.626    9393.6411    782.36487    9.2144577    9.2144577    9.2144577    64.856207 
   21300     296.7294   -10455.243            0   -9571.6334    9966.8643    786.16967    9.2293708    9.2293708    9.2293708     60.57403 
   21400    297.28167    -10462.23            0   -9576.9759   -15457.234    790.63528    9.2468127    9.2468127    9.2468127    69.917516 
   21500    297.50312   -10465.721            0   -9579.8075   -26652.161    794.82678    9.2631244    9.2631244    9.2631244    50.985953 
   21600    312.83352   -10512.076            0   -9580.5115   -7909.6861    797.99247    9.2754061    9.2754061    9.2754061    66.797393 
   21700    303.79558   -10486.669            0   -9582.0173   -21271.801    800.14858    9.2837523    9.2837523    9.2837523    62.498499 
   21800    298.55057   -10471.377            0   -9582.3446   -23946.824    800.88059    9.2865825    9.2865825    9.2865825    68.152657 
   21900    296.28197   -10466.296            0   -9584.0187   -32926.313    799.86689    9.2826628    9.2826628    9.2826628    46.728221 
   22000    303.46689   -10488.401            0   -9584.7284   -21096.025    797.06173    9.2717985    9.2717985    9.2717985    72.579429 
Loop time of 16.6361 on 16 procs for 1000 steps with 1000 atoms

Performance: 5.194 ns/day, 4.621 hours/ns, 60.110 timesteps/s
94.5% CPU use with 16 MPI tasks x no OpenMP threads

MPI task timing breakdown:
Section |  min time  |  avg time  |  max time  |%varavg| %total
---------------------------------------------------------------
Pair    | 1.5972     | 1.6932     | 1.818      |   3.8 | 10.18
Neigh   | 0.58466    | 0.60233    | 0.64688    |   1.7 |  3.62
Comm    | 0.36894    | 0.53819    | 0.65146    |   8.3 |  3.24
Output  | 9.1207     | 9.4145     | 13.774     |  36.7 | 56.59
Modify  | 0.020492   | 4.3811     | 4.675      |  53.8 | 26.33
Other   |            | 0.00685    |            |       |  0.04

Nlocal:    62.5 ave 68 max 56 min
Histogram: 1 0 3 1 1 4 0 3 1 2
Nghost:    1831.38 ave 1851 max 1821 min
Histogram: 2 4 1 1 3 2 2 0 0 1
Neighs:    0 ave 0 max 0 min
Histogram: 16 0 0 0 0 0 0 0 0 0
FullNghs:  18520.6 ave 20173 max 16517 min
Histogram: 1 0 3 1 3 1 1 2 2 2

Total # of neighbors = 296330
Ave neighs/atom = 296.33
Neighbor list builds = 1000
Dangerous builds not checked
Setting up Verlet run ...
  Unit style    : real
  Current step  : 22000
  Time step     : 1
Per MPI rank memory allocation (min/avg/max) = 4.578 | 4.579 | 4.579 Mbytes
Step Temp E_pair E_mol TotEng Press Volume Lx Ly Lz S/CPU 
   22000    303.46689   -10488.401            0   -9584.7284   -21096.025    797.06173    9.2717985    9.2717985    9.2717985            0 
   22100    299.36818   -10477.281            0   -9585.8141   -3950.7997    793.13798    9.2565592    9.2565592    9.2565592    48.097307 
   22200    295.88111   -10468.065            0    -9586.982   -7946.0448    788.66194    9.2391133    9.2391133    9.2391133    74.496676 
   22300    306.67415   -10501.009            0   -9587.7862   -2005.9606    783.79379    9.2200641    9.2200641    9.2200641    43.890987 
   22400    304.38146   -10494.687            0   -9588.2908    20189.704    778.88217    9.2007646    9.2007646    9.2007646    77.511026 
   22500    298.23833   -10476.014            0   -9587.9112    20104.347    774.85877    9.1848948    9.1848948    9.1848948     55.11074 
   22600    307.89383   -10506.545            0   -9589.6893    12260.393       772.01    9.1736248    9.1736248    9.1736248    55.730653 
   22700    309.77975   -10515.162            0   -9592.6907    15790.447    770.10201    9.1660612    9.1660612    9.1660612    44.840067 
   22800    307.07434   -10512.046            0   -9597.6313    7392.4005    769.40645    9.1633008    9.1633008    9.1633008    67.662999 
   22900    302.49982   -10506.012            0   -9605.2195    25629.419    769.76569    9.1647267    9.1647267    9.1647267    46.784414 
   23000    302.84203   -10516.337            0   -9614.5251    11747.141    771.28207    9.1707407    9.1707407    9.1707407    48.018348 
Loop time of 18.5269 on 16 procs for 1000 steps with 1000 atoms

Performance: 4.663 ns/day, 5.146 hours/ns, 53.975 timesteps/s
94.5% CPU use with 16 MPI tasks x no OpenMP threads

MPI task timing breakdown:
Section |  min time  |  avg time  |  max time  |%varavg| %total
---------------------------------------------------------------
Pair    | 1.7085     | 1.7584     | 1.8391     |   2.9 |  9.49
Neigh   | 0.59866    | 0.60707    | 0.63711    |   1.3 |  3.28
Comm    | 0.43158    | 0.54236    | 0.59912    |   6.6 |  2.93
Output  | 10.698     | 11.007     | 15.591     |  35.7 | 59.41
Modify  | 0.020474   | 4.6051     | 4.914      |  55.2 | 24.86
Other   |            | 0.006927   |            |       |  0.04

Nlocal:    62.5 ave 71 max 55 min
Histogram: 1 1 1 2 3 5 0 2 0 1
Nghost:    1872.12 ave 1891 max 1855 min
Histogram: 2 4 1 1 0 1 1 2 3 1
Neighs:    0 ave 0 max 0 min
Histogram: 16 0 0 0 0 0 0 0 0 0
FullNghs:  19143.6 ave 21825 max 16729 min
Histogram: 1 1 2 1 3 5 0 2 0 1

Total # of neighbors = 306298
Ave neighs/atom = 306.298
Neighbor list builds = 1000
Dangerous builds not checked
Setting up Verlet run ...
  Unit style    : real
  Current step  : 23000
  Time step     : 1
Per MPI rank memory allocation (min/avg/max) = 4.578 | 4.579 | 4.579 Mbytes
Step Temp E_pair E_mol TotEng Press Volume Lx Ly Lz S/CPU 
   23000    302.84203   -10516.337            0   -9614.5251    11747.141    771.28207    9.1707407    9.1707407    9.1707407            0 
   23100    288.65224   -10480.421            0   -9620.8641    7458.7299    773.57854    9.1798335    9.1798335    9.1798335    56.172215 
   23200    290.66665   -10494.499            0   -9628.9433    6720.4777      776.692    9.1921325    9.1921325    9.1921325    51.693633 
   23300    284.66855   -10481.096            0   -9633.4021    2485.4956    780.48782    9.2070827    9.2070827    9.2070827    52.854912 
   23400    295.82728    -10518.71            0   -9637.7865    7654.3527    784.16308    9.2215119    9.2215119    9.2215119    55.466545 
   23500    293.65297   -10514.036            0    -9639.588   -17327.578    787.76777    9.2356203    9.2356203    9.2356203     54.26849 
   23600    273.26346   -10453.099            0   -9639.3675   -27393.104    790.51205    9.2463323    9.2463323    9.2463323    63.884113 
   23700    284.22698   -10485.351            0   -9638.9713   -21731.192    791.74911     9.251153     9.251153     9.251153    42.265983 
   23800     291.6217   -10505.686            0   -9637.2861   -7078.3866    791.69665    9.2509486    9.2509486    9.2509486    58.578382 
   23900    302.21448    -10534.19            0   -9634.2468   -3741.5951    790.92064    9.2479251    9.2479251    9.2479251    41.189165 
   24000    291.40918   -10497.153            0   -9629.3862   -6959.5063    789.89126    9.2439113    9.2439113    9.2439113    42.555409 
Loop time of 19.6684 on 16 procs for 1000 steps with 1000 atoms

Performance: 4.393 ns/day, 5.463 hours/ns, 50.843 timesteps/s
94.5% CPU use with 16 MPI tasks x no OpenMP threads

MPI task timing breakdown:
Section |  min time  |  avg time  |  max time  |%varavg| %total
---------------------------------------------------------------
Pair    | 1.6232     | 1.7275     | 1.8298     |   4.2 |  8.78
Neigh   | 0.58493    | 0.60543    | 0.64949    |   2.0 |  3.08
Comm    | 0.44592    | 0.59225    | 0.71784    |   9.0 |  3.01
Output  | 10.614     | 10.998     | 16.715     |  44.5 | 55.92
Modify  | 0.020367   | 5.7382     | 6.1225     |  61.6 | 29.17
Other   |            | 0.006882   |            |       |  0.03

Nlocal:    62.5 ave 66 max 55 min
Histogram: 1 0 2 0 2 0 1 1 4 5
Nghost:    1843.19 ave 1859 max 1815 min
Histogram: 1 1 2 0 0 1 2 3 3 3
Neighs:    0 ave 0 max 0 min
Histogram: 16 0 0 0 0 0 0 0 0 0
FullNghs:  18678.1 ave 19915 max 16251 min
Histogram: 1 0 1 1 2 0 1 4 3 3

Total # of neighbors = 298850
Ave neighs/atom = 298.85
Neighbor list builds = 1000
Dangerous builds not checked
Setting up Verlet run ...
  Unit style    : real
  Current step  : 24000
  Time step     : 1
Per MPI rank memory allocation (min/avg/max) = 4.578 | 4.579 | 4.579 Mbytes
Step Temp E_pair E_mol TotEng Press Volume Lx Ly Lz S/CPU 
   24000    291.40918   -10497.153            0   -9629.3862   -6959.5063    789.89126    9.2439113    9.2439113    9.2439113            0 
   24100    302.44375   -10525.112            0   -9624.4866    10690.426     788.9107    9.2400846    9.2400846    9.2400846    48.599171 
   24200    296.27233   -10500.351            0   -9618.1026     760.8831    788.41773    9.2381596    9.2381596    9.2381596    51.131973 
   24300    297.50931   -10499.063            0    -9613.131    1310.8198    788.13265     9.237046     9.237046     9.237046    54.686854 
   24400    292.73029   -10478.365            0   -9606.6642    1891.4447    787.91051    9.2361781    9.2361781    9.2361781    55.166534 
   24500    297.54669   -10487.902            0   -9601.8589   -11639.924    787.56043      9.23481      9.23481      9.23481    41.938856 
   24600    305.67676   -10507.883            0   -9597.6301    7924.9687      787.014    9.2326737    9.2326737    9.2326737    54.464143 
   24700    308.09493    -10512.62            0   -9595.1661    5374.6206    786.09653    9.2290846    9.2290846    9.2290846    52.830166 
   24800     302.4494   -10494.237            0   -9593.5938    3038.5261    785.10867     9.225217     9.225217     9.225217    54.309579 
   24900    304.37606   -10498.453            0   -9592.0729   -3374.8042    784.03192    9.2209977    9.2209977    9.2209977    38.394575 
   25000    304.93327   -10498.784            0   -9590.7449   -8059.2221    782.60112    9.2153851    9.2153851    9.2153851    66.111078 
Loop time of 19.7265 on 16 procs for 1000 steps with 1000 atoms

Performance: 4.380 ns/day, 5.480 hours/ns, 50.693 timesteps/s
94.4% CPU use with 16 MPI tasks x no OpenMP threads

MPI task timing breakdown:
Section |  min time  |  avg time  |  max time  |%varavg| %total
---------------------------------------------------------------
Pair    | 1.6606     | 1.7178     | 1.8549     |   3.8 |  8.71
Neigh   | 0.59158    | 0.60459    | 0.65188    |   1.7 |  3.06
Comm    | 0.38593    | 0.56987    | 0.63599    |   8.3 |  2.89
Output  | 11.758     | 12.076     | 16.806     |  35.1 | 61.22
Modify  | 0.020188   | 4.7509     | 5.0695     |  56.0 | 24.08
Other   |            | 0.006881   |            |       |  0.03

Nlocal:    62.5 ave 71 max 58 min
Histogram: 3 3 2 3 1 1 1 1 0 1
Nghost:    1861.75 ave 1880 max 1846 min
Histogram: 2 1 1 2 2 3 2 1 1 1
Neighs:    0 ave 0 max 0 min
Histogram: 16 0 0 0 0 0 0 0 0 0
FullNghs:  18851.4 ave 21536 max 17734 min
Histogram: 5 4 1 1 2 0 0 2 0 1

Total # of neighbors = 301622
Ave neighs/atom = 301.622
Neighbor list builds = 1000
Dangerous builds not checked
Setting up Verlet run ...
  Unit style    : real
  Current step  : 25000
  Time step     : 1
Per MPI rank memory allocation (min/avg/max) = 4.578 | 4.579 | 4.579 Mbytes
Step Temp E_pair E_mol TotEng Press Volume Lx Ly Lz S/CPU 
   25000    304.93327   -10498.784            0   -9590.7449   -8059.2221    782.60112    9.2153851    9.2153851    9.2153851            0 
   25100    298.93723   -10480.571            0   -9590.3867    9233.5817    781.08777    9.2094412    9.2094412    9.2094412    59.801857 
   25200    304.73156   -10497.845            0   -9590.4061    12358.663    779.95599    9.2049909    9.2049909    9.2049909    74.837488 
   25300    300.95271   -10484.969            0   -9588.7829    8933.8906    779.55084    9.2033968    9.2033968    9.2033968    62.293226 
   25400    298.92987   -10478.975            0   -9588.8129   -1290.5101    779.59178    9.2035579    9.2035579    9.2035579    73.057818 
   25500    309.86588   -10513.249            0   -9590.5216    8183.4528    779.74261    9.2041515    9.2041515    9.2041515    42.086692 
   25600    307.17452   -10505.451            0   -9590.7379    2993.5752    780.49925    9.2071276    9.2071276    9.2071276    64.205013 
   25700    313.04211   -10526.071            0   -9593.8849    6557.5637    781.31643    9.2103398    9.2103398    9.2103398    67.640078 
   25800    297.34117   -10481.547            0   -9596.1162    4101.6544    782.07222    9.2133086    9.2133086    9.2133086    48.775947 
   25900    301.49791   -10496.732            0   -9598.9222    -14417.82    782.89669    9.2165451    9.2165451    9.2165451    71.940664 
   26000    294.87957   -10478.447            0   -9600.3456    519.44194    783.51478    9.2189699    9.2189699    9.2189699    60.517335 
Loop time of 16.4872 on 16 procs for 1000 steps with 1000 atoms

Performance: 5.240 ns/day, 4.580 hours/ns, 60.653 timesteps/s
94.6% CPU use with 16 MPI tasks x no OpenMP threads

MPI task timing breakdown:
Section |  min time  |  avg time  |  max time  |%varavg| %total
---------------------------------------------------------------
Pair    | 1.671      | 1.7475     | 1.8865     |   4.2 | 10.60
Neigh   | 0.59263    | 0.60616    | 0.64277    |   1.5 |  3.68
Comm    | 0.3741     | 0.54944    | 0.63917    |   8.9 |  3.33
Output  | 9.4407     | 9.7007     | 13.556     |  32.0 | 58.84
Modify  | 0.019942   | 3.8765     | 4.1366     |  50.6 | 23.51
Other   |            | 0.006902   |            |       |  0.04

Nlocal:    62.5 ave 68 max 55 min
Histogram: 1 1 0 1 2 2 4 2 2 1
Nghost:    1851.12 ave 1876 max 1828 min
Histogram: 1 2 0 4 1 3 2 1 1 1
Neighs:    0 ave 0 max 0 min
Histogram: 16 0 0 0 0 0 0 0 0 0
FullNghs:  18826.1 ave 20688 max 16519 min
Histogram: 1 1 1 0 3 1 4 3 1 1

Total # of neighbors = 301218
Ave neighs/atom = 301.218
Neighbor list builds = 1000
Dangerous builds not checked
Setting up Verlet run ...
  Unit style    : real
  Current step  : 26000
  Time step     : 1
Per MPI rank memory allocation (min/avg/max) = 4.578 | 4.579 | 4.579 Mbytes
Step Temp E_pair E_mol TotEng Press Volume Lx Ly Lz S/CPU 
   26000    294.87957   -10478.447            0   -9600.3456    519.44194    783.51478    9.2189699    9.2189699    9.2189699            0 
   26100    298.82106    -10491.99            0   -9602.1519    8443.4031    784.13355    9.2213961    9.2213961    9.2213961     69.83722 
   26200    289.48969   -10464.866            0   -9602.8153    8551.5678    784.74503    9.2237925    9.2237925    9.2237925     56.87794 
   26300    303.16552   -10507.499            0   -9604.7243   -10430.787    785.47536     9.226653     9.226653     9.226653    72.109552 
   26400    301.04885   -10500.195            0   -9603.7234    -10805.22    786.09614    9.2290831    9.2290831    9.2290831    62.455337 
   26500    297.64267   -10488.556            0   -9602.2269   -8296.5866    786.01948     9.228783     9.228783     9.228783    62.620327 
   26600    294.47902   -10476.475            0   -9599.5669    1936.2402    785.59066    9.2271045    9.2271045    9.2271045     63.59132 
   26700    301.47382    -10491.01            0   -9593.2723   -1983.2845    784.90907    9.2244352    9.2244352    9.2244352    69.556769 
   26800    296.69556   -10467.127            0   -9583.6184     12823.61    784.29775    9.2220397    9.2220397    9.2220397    53.753263 
   26900     304.4624    -10479.19            0   -9572.5532    -12970.76    784.21023    9.2216967    9.2216967    9.2216967    70.118885 
   27000     309.0832   -10481.178            0   -9560.7815    2800.2779      783.966    9.2207393    9.2207393    9.2207393    58.593564 
Loop time of 15.7783 on 16 procs for 1000 steps with 1000 atoms

Performance: 5.476 ns/day, 4.383 hours/ns, 63.378 timesteps/s
94.6% CPU use with 16 MPI tasks x no OpenMP threads

MPI task timing breakdown:
Section |  min time  |  avg time  |  max time  |%varavg| %total
---------------------------------------------------------------
Pair    | 1.6706     | 1.7271     | 1.8278     |   2.9 | 10.95
Neigh   | 0.58958    | 0.60577    | 0.64559    |   1.6 |  3.84
Comm    | 0.40722    | 0.54768    | 0.62022    |   6.8 |  3.47
Output  | 9.0181     | 9.2617     | 12.87      |  30.6 | 58.70
Modify  | 0.020302   | 3.6292     | 3.8728     |  48.9 | 23.00
Other   |            | 0.006858   |            |       |  0.04

Nlocal:    62.5 ave 67 max 57 min
Histogram: 1 1 0 2 2 2 2 2 1 3
Nghost:    1854.62 ave 1878 max 1831 min
Histogram: 2 1 4 0 2 0 1 1 4 1
Neighs:    0 ave 0 max 0 min
Histogram: 16 0 0 0 0 0 0 0 0 0
FullNghs:  18808.9 ave 20268 max 17113 min
Histogram: 2 0 0 4 2 2 2 1 0 3

Total # of neighbors = 300942
Ave neighs/atom = 300.942
Neighbor list builds = 1000
Dangerous builds not checked
Setting up Verlet run ...
  Unit style    : real
  Current step  : 27000
  Time step     : 1
Per MPI rank memory allocation (min/avg/max) = 4.578 | 4.579 | 4.579 Mbytes
Step Temp E_pair E_mol TotEng Press Volume Lx Ly Lz S/CPU 
   27000     309.0832   -10481.178            0   -9560.7815    2800.2779      783.966    9.2207393    9.2207393    9.2207393            0 
   27100    314.43319   -10486.202            0   -9549.8735    8711.5582    784.11325    9.2213165    9.2213165    9.2213165    63.559713 
   27200    310.78169   -10466.752            0   -9541.2974    10962.871    784.79598    9.2239921    9.2239921    9.2239921     47.33829 
   27300    310.51548   -10459.616            0   -9534.9541   -5699.8813    785.94082    9.2284752    9.2284752    9.2284752    82.921376 
   27400    296.13225    -10410.29            0   -9528.4585   -4427.0262    787.03676    9.2327627    9.2327627    9.2327627    60.264851 
   27500    309.36904   -10447.243            0   -9525.9948   -4738.2523    787.88654    9.2360844    9.2360844    9.2360844    66.863458 
   27600    304.09754   -10430.771            0   -9525.2209   -13208.793     788.3076    9.2377294    9.2377294    9.2377294    47.644277 
   27700    310.91825   -10453.321            0     -9527.46   -3165.4621    788.15364     9.237128     9.237128     9.237128    42.703369 
   27800    320.17476   -10486.189            0   -9532.7629    -3839.639    787.36693    9.2340536    9.2340536    9.2340536    60.103344 
   27900    319.51002   -10491.843            0   -9540.3971   -4885.4431    785.69411    9.2275095    9.2275095    9.2275095    52.774403 
   28000    314.73255   -10487.744            0   -9550.5241    23628.952    783.69274    9.2196678    9.2196678    9.2196678    46.295866 
Loop time of 18.206 on 16 procs for 1000 steps with 1000 atoms

[...]
  593700    299.75433   -11418.469            0   -10525.852   -1427.6044    752.08006    9.0939946    9.0939946    9.0939946    63.981302 
  593800    297.60493   -11415.059            0   -10528.843    3238.6008    752.71924    9.0965701    9.0965701    9.0965701    70.346263 
  593900    288.04621   -11389.727            0   -10531.974   -4281.7058    753.02103    9.0977857    9.0977857    9.0977857    55.274807 
  594000    296.73904   -11422.669            0   -10539.031    -3517.612     752.9225    9.0973889    9.0973889    9.0973889     73.41747 
  594100    302.38701   -11449.521            0   -10549.064    2463.3203    752.69796    9.0964844    9.0964844    9.0964844    51.721695 
  594200     296.3784   -11440.662            0   -10558.097   -4485.7385     752.3822    9.0952122    9.0952122    9.0952122    73.528318 
  594300    299.72573   -11463.088            0   -10570.556    -1946.931    751.72596    9.0925671    9.0925671    9.0925671    56.720312 
  594400    287.39257   -11434.517            0   -10578.711    1261.7305    751.12944    9.0901614    9.0901614    9.0901614    53.410339 
  594500    292.71871    -11457.52            0   -10585.853    22473.747    750.81816    9.0889055    9.0889055    9.0889055    73.838254 
  594600     285.3186   -11441.785            0   -10592.155    2513.9188    750.99301     9.089611     9.089611     9.089611    75.167315 
  594700    294.66034   -11472.673            0   -10595.225    3545.7196    751.37183    9.0911391    9.0911391    9.0911391    52.167266 
  594800    294.19963   -11472.689            0   -10596.613   -20266.082    751.74465    9.0926425    9.0926425    9.0926425    61.460019 
  594900    284.90406   -11441.072            0   -10592.676    3662.6573    751.62713    9.0921687    9.0921687    9.0921687    75.437489 
  595000    291.48767    -11456.53            0   -10588.529    4991.5966     751.1478    9.0902355    9.0902355    9.0902355    67.234715 
  595100    294.13544   -11456.469            0   -10580.584   -26280.653    750.65958    9.0882656    9.0882656    9.0882656    61.838961 
  595200    293.45924   -11441.789            0   -10567.918    7423.4759    749.82823    9.0849093    9.0849093    9.0849093    57.175754 
  595300    289.29165   -11415.696            0   -10554.235    20988.198    749.35234    9.0829869    9.0829869    9.0829869    75.276726 
  595400    289.00848   -11402.626            0   -10542.008    14290.493     749.5332    9.0837176    9.0837176    9.0837176    62.763044 
  595500    293.58337   -11406.162            0    -10531.92   -1114.3673    750.17588    9.0863131    9.0863131    9.0863131    63.218441 
  595600    295.25849   -11403.529            0   -10524.299    5176.5496    750.80543    9.0888542    9.0888542    9.0888542    53.988464 
  595700    297.24821   -11403.628            0   -10518.474    6910.2003    751.48445    9.0915933    9.0915933    9.0915933    54.279335 
  595800     298.5286   -11404.203            0   -10515.236   -17996.526    752.37357    9.0951775    9.0951775    9.0951775    76.527787 
  595900     306.7397   -11424.721            0   -10511.303   -8010.4028     753.0819    9.0980308    9.0980308    9.0980308    59.921366 
  596000    295.85733   -11387.924            0   -10506.911   -15713.166    753.39373    9.0992864    9.0992864    9.0992864    71.232649 
  596100    302.40357   -11404.979            0   -10504.473   -10213.164    753.31408    9.0989657    9.0989657    9.0989657     58.99042 
  596200    297.37942   -11389.063            0   -10503.518   -1076.8232    752.92663    9.0974055    9.0974055    9.0974055    64.267132 
  596300    304.32552   -11407.274            0   -10501.045    4894.3367    752.37582    9.0951865    9.0951865    9.0951865    57.674779 
  596400    302.94062   -11401.432            0   -10499.326    1739.3412    752.02797    9.0937846    9.0937846    9.0937846    60.119623 
  596500    309.22678   -11419.697            0   -10498.873   -1453.3001    751.75879    9.0926995    9.0926995    9.0926995    76.887325 
  596600    297.59846   -11384.006            0   -10497.809   -1626.2175    751.71133    9.0925081    9.0925081    9.0925081    65.023124 
  596700    305.16293    -11407.85            0   -10499.127    6680.3547    751.58783    9.0920102    9.0920102    9.0920102    55.590224 
  596800    295.10051    -11378.42            0   -10499.661    -1501.812    751.71817    9.0925357    9.0925357    9.0925357    64.840329 
  596900    302.04384   -11402.895            0    -10503.46    9935.4721    751.97978    9.0935904    9.0935904    9.0935904     64.15341 
  597000    302.92365   -11409.806            0   -10507.751    2895.4765    752.28086    9.0948038    9.0948038    9.0948038    58.750108 
  597100    302.22544   -11412.814            0   -10512.838   -6485.9846    752.17679    9.0943845    9.0943845    9.0943845    78.715603 
  597200    293.59582   -11391.772            0   -10517.494   -6658.6143    751.92157    9.0933557    9.0933557    9.0933557     57.36569 
  597300    295.42791   -11404.966            0   -10525.232   -8120.9518    751.54695    9.0918453    9.0918453    9.0918453    56.380911 
  597400     297.9772   -11421.863            0   -10534.538    441.49824    751.06456    9.0898997    9.0898997    9.0898997    70.027786 
  597500    308.74014   -11462.327            0   -10542.952    14532.108     750.5556     9.087846     9.087846     9.087846    60.439931 
  597600      289.313   -11411.433            0   -10549.909    56.728357    750.16461    9.0862676    9.0862676    9.0862676    72.235284 
  597700    286.90567   -11411.447            0   -10557.091    8544.9277    749.65158    9.0841958    9.0841958    9.0841958    61.118998 
  597800    285.81257   -11411.872            0   -10560.771    22008.781    749.01131    9.0816088    9.0816088    9.0816088    69.146715 
  597900    293.79993   -11441.123            0   -10566.236    15704.841    749.04354    9.0817391    9.0817391    9.0817391    58.480263 
  598000    282.25147   -11408.304            0   -10567.808    7731.1066    749.53556    9.0837271    9.0837271    9.0837271     67.93692 
  598100    295.18808   -11448.257            0   -10569.237   -4098.6542    750.36154    9.0870627    9.0870627    9.0870627    53.909593 
  598200    295.45481   -11447.815            0   -10568.001    12471.104    751.22657    9.0905532    9.0905532    9.0905532    65.401387 
  598300    295.43641   -11443.983            0   -10564.224   -4075.7994    752.31584    9.0949448    9.0949448    9.0949448    67.845099 
  598400    281.82847   -11395.798            0   -10556.561   -4578.8699    753.25614    9.0987324    9.0987324    9.0987324    71.179562 
  598500    294.98178   -11427.213            0   -10548.808   -6891.0417    753.84418    9.1010995    9.1010995    9.1010995    56.955718 
  598600    295.24082   -11415.868            0   -10536.691   -23718.278    754.29726    9.1029225    9.1029225    9.1029225    65.649614 
  598700    301.41087   -11421.003            0   -10523.453   -6591.0905    753.96613    9.1015902    9.1015902    9.1015902    51.400861 
  598800    296.40289   -11391.239            0   -10508.602   -3976.2907    753.28665    9.0988553    9.0988553    9.0988553    63.243211 
  598900    307.76097    -11414.39            0   -10497.931    2081.8929    752.49096    9.0956505    9.0956505    9.0956505    57.921405 
  599000    304.45972   -11395.054            0   -10488.425    5555.4671    751.71165    9.0925094    9.0925094    9.0925094    58.942545 
  599100    298.85677   -11371.325            0   -10481.381   -357.37333    751.08835    9.0899957    9.0899957    9.0899957    76.651522 
  599200    313.71357   -11413.538            0   -10479.352    9182.9445    750.66586    9.0882909    9.0882909    9.0882909     56.14377 
  599300    303.63442   -11380.343            0   -10476.172    5793.8822    750.33911    9.0869721    9.0869721    9.0869721    78.174646 
  599400    301.99145   -11374.434            0   -10475.155    15196.417    750.13283    9.0861393    9.0861393    9.0861393    58.614889 
  599500    310.31088   -11399.345            0   -10475.292    6878.1931    750.35826    9.0870494    9.0870494    9.0870494    71.908866 
  599600    305.36025   -11384.799            0   -10475.488    6524.5694     751.3862     9.091197     9.091197     9.091197    61.896169 
  599700    292.47259   -11345.932            0   -10474.999    1921.8819    753.16845    9.0983793    9.0983793    9.0983793    74.218328 
  599800    300.04898   -11369.805            0   -10476.311   -2722.2489    755.15394    9.1063673    9.1063673    9.1063673    58.405779 
  599900    311.66196   -11404.975            0   -10476.899   -3458.4397    756.86574     9.113243     9.113243     9.113243    60.587097 
  600000    310.59777   -11403.476            0   -10478.569   -3186.4958    757.80003    9.1169913    9.1169913    9.1169913    68.812935 
  600100    306.54166   -11393.842            0   -10481.014   -13457.373     757.6863    9.1165352    9.1165352    9.1165352    58.650646 
  600200    300.62181   -11380.913            0   -10485.712   -7921.5909    756.37266    9.1112635    9.1112635    9.1112635    66.968859 
  600300     301.8321   -11389.718            0   -10490.913   -13700.388    754.17337    9.1024241    9.1024241    9.1024241    55.054028 
  600400    305.13385   -11408.128            0   -10499.491    4526.4165    751.49128    9.0916208    9.0916208    9.0916208    74.201025 
  600500    306.48898   -11423.044            0   -10510.372    24439.426    748.98694    9.0815104    9.0815104    9.0815104    57.292699 
  600600    303.65611   -11428.229            0   -10523.993    4709.0546     747.1893     9.074239     9.074239     9.074239    57.832886 
  600700     292.2077   -11408.858            0   -10538.714    14267.123    746.23514    9.0703748    9.0703748    9.0703748    63.651694 
  600800    279.59257   -11384.481            0   -10551.902    25346.944    746.65298    9.0720674    9.0720674    9.0720674    56.047546 
  600900    289.86197   -11425.334            0   -10562.175    11640.854    748.36802    9.0790082    9.0790082    9.0790082    88.171965 
  601000     296.8424    -11454.22            0   -10570.274   -3416.6609    750.77831    9.0887447    9.0887447    9.0887447    55.141631 
  601100    301.84776   -11472.092            0   -10573.241   -4475.9356    753.14487    9.0982844    9.0982844    9.0982844    68.622729 
  601200    296.85079   -11457.268            0   -10573.297   -6769.8338    754.69561    9.1045246    9.1045246    9.1045246     54.49852 
  601300    289.45033    -11433.75            0   -10571.816   -24321.397    755.38236    9.1072854    9.1072854    9.1072854    67.139748 
  601400    290.88166   -11434.955            0    -10568.76   -7105.0845    754.93457    9.1054854    9.1054854    9.1054854    58.485677 
  601500    292.58485   -11435.127            0   -10563.859   -7392.8031    753.85343    9.1011367    9.1011367    9.1011367    65.522443 
  601600    291.05605    -11424.54            0   -10557.824   -7334.4714    752.47198     9.095574     9.095574     9.095574    49.548193 
  601700    293.30765   -11425.109            0   -10551.689    4854.9006    751.07449    9.0899397    9.0899397    9.0899397    62.825887 
  601800    299.90326   -11439.764            0   -10546.703    4908.4892    750.02941    9.0857217    9.0857217    9.0857217    65.786497 
  601900    296.45988   -11421.473            0   -10538.666     10054.44    749.37523    9.0830794    9.0830794    9.0830794    59.248946 
  602000    311.24121   -11459.732            0   -10532.908   -6121.0497    749.27618    9.0826792    9.0826792    9.0826792    84.235161 
  602100    304.09089    -11432.85            0   -10527.319    4708.3673    749.33989    9.0829366    9.0829366    9.0829366    51.236714 
  602200    301.16955   -11419.318            0   -10522.486    11634.952    749.83412    9.0849331    9.0849331    9.0849331    78.714111 
  602300    298.31818   -11406.629            0   -10518.289    2041.3789    750.92655    9.0893429    9.0893429    9.0893429     59.18394 
  602400    312.47289   -11445.404            0   -10514.913    3780.0454     752.2486    9.0946739    9.0946739    9.0946739    80.064136 
  602500    294.11856   -11385.162            0   -10509.328   -10314.009    753.33701     9.099058     9.099058     9.099058    45.519688 
  602600    295.76333   -11387.466            0   -10506.733   -16817.429    754.06335    9.1019814    9.1019814    9.1019814    57.761802 
  602700    302.69209   -11404.309            0   -10502.944   -8772.4286    754.19254    9.1025012    9.1025012    9.1025012    67.529513 
  602800    301.52729   -11397.681            0   -10499.784   -20644.188    753.88895    9.1012797    9.1012797    9.1012797    70.323155 
  602900     301.4578   -11395.667            0   -10497.977   -9823.1344    752.94524    9.0974805    9.0974805    9.0974805    77.794795 
  603000    306.72787   -11411.197            0   -10497.814   -2958.7826    751.55971    9.0918968    9.0918968    9.0918968    54.017074 
  603100    308.55647   -11415.573            0   -10496.744    7944.0988     749.9978    9.0855941    9.0855941    9.0855941    76.009335 
  603200     299.0959   -11386.722            0   -10496.066    25926.215    748.67095     9.080233     9.080233     9.080233    63.612841 
  603300    304.59165   -11404.269            0   -10497.248    17430.267    748.27965    9.0786508    9.0786508    9.0786508    68.682179 
  603400    302.26198   -11401.821            0   -10501.736    5906.2196    748.83102    9.0808801    9.0808801    9.0808801    55.745715 
  603500    297.58972   -11396.676            0   -10510.504    10383.992    750.14946    9.0862065    9.0862065    9.0862065    68.626317 
  603600    295.77925   -11406.388            0   -10525.608   -9048.9255     752.1379    9.0942277    9.0942277    9.0942277    55.030904 
  603700    287.85525   -11400.386            0   -10543.202   -17204.808    753.92318    9.1014174    9.1014174    9.1014174    67.532303 
  603800    292.13626   -11428.258            0   -10558.326   -29108.986    755.09313    9.1061229    9.1061229    9.1061229    66.700085 
  603900    286.25366   -11421.992            0   -10569.578   -12399.657     755.0915    9.1061163    9.1061163    9.1061163    54.551098 
  604000    290.31162   -11443.264            0   -10578.766    -19828.59    754.10571    9.1021518    9.1021518    9.1021518    74.142998 
  604100    292.60054   -11454.765            0    -10583.45   -5269.5552    752.17168    9.0943638    9.0943638    9.0943638    59.650239 
  604200    286.21314   -11437.644            0    -10585.35    3490.5306    749.89052    9.0851609    9.0851609    9.0851609    73.355872 
  604300     295.2883   -11465.334            0   -10586.016     5004.969    747.94572    9.0773001    9.0773001    9.0773001    53.551896 
  604400    300.30801   -11478.855            0   -10584.589    24364.115    746.48266    9.0713775    9.0713775    9.0713775    65.876054 
  604500    287.74988   -11435.102            0   -10578.232    11797.384    746.10937    9.0698652    9.0698652    9.0698652    60.797314 
  604600     290.6941   -11436.422            0   -10570.785   -723.56675    746.71006    9.0722985    9.0722985    9.0722985    51.030194 
  604700    292.80578   -11434.822            0   -10562.896    8258.1386    747.79938     9.076708     9.076708     9.076708    74.148852 
  604800    294.76937   -11430.182            0   -10552.409    16677.835     749.5205    9.0836663    9.0836663    9.0836663     56.39526 
  604900    287.29118   -11397.282            0   -10541.778    6121.2971     751.6854    9.0924036    9.0924036    9.0924036    44.884984 
  605000     315.0289   -11471.325            0   -10533.223   -16240.747    753.37332    9.0992042    9.0992042    9.0992042    62.588128 
  605100    297.67085     -11408.4            0   -10521.987   -15346.378    753.96436    9.1015831    9.1015831    9.1015831    56.588752 
  605200    296.61074   -11397.903            0   -10514.646   -1334.0825    753.82021     9.101003     9.101003     9.101003    76.645984 
  605300     303.4525   -11412.069            0    -10508.44    12629.441     753.3548    9.0991297    9.0991297    9.0991297    58.513287 
  605400     301.1697   -11399.182            0    -10502.35    1460.4177    752.74999     9.096694     9.096694     9.096694    79.188808 
  605500    297.19479   -11382.945            0    -10497.95    11448.597    751.82027    9.0929474    9.0929474    9.0929474    52.370216 
  605600    295.86405   -11375.744            0   -10494.712   -3782.7545    750.98536    9.0895801    9.0895801    9.0895801    59.209986 
  605700    314.17853   -11428.596            0   -10493.026    21589.265    750.51846     9.087696     9.087696     9.087696    66.716181 
  605800    307.37263   -11406.494            0    -10491.19    18598.518    750.79322    9.0888049    9.0888049    9.0888049    59.396663 
  605900    303.53993   -11394.294            0   -10490.404    11802.317    751.89846    9.0932626    9.0932626    9.0932626    75.745057 
  606000    307.59547    -11407.36            0   -10491.393   -13778.617     753.2654    9.0987697    9.0987697    9.0987697    53.653238 
  606100      307.893   -11409.181            0   -10492.328    840.10565    754.24794    9.1027241    9.1027241    9.1027241    65.892697 
  606200    292.55573   -11364.583            0   -10493.402    3335.9021     755.1099    9.1061903    9.1061903    9.1061903    67.405439 
  606300    304.71524   -11404.213            0   -10496.823   -9670.8953    755.78604    9.1089074    9.1089074    9.1089074    51.842131 
  606400    293.51439   -11373.621            0   -10499.585   -6030.1539    755.82672    9.1090709    9.1090709    9.1090709    64.466759 
  606500    300.27103   -11399.041            0   -10504.885   -30605.544    755.12834    9.1062644    9.1062644    9.1062644    56.165959 
  606600    296.03781   -11392.333            0   -10510.783    7986.2678    753.50961    9.0997529    9.0997529    9.0997529    76.469088 
  606700    304.15543   -11427.732            0   -10522.009    1575.1887    751.83243    9.0929964    9.0929964    9.0929964    52.282903 
  606800    300.32174   -11429.277            0    -10534.97    4366.7552     750.4179    9.0872901    9.0872901    9.0872901    70.186061 
  606900    294.80843    -11430.01            0   -10552.121    4029.0758    749.46434    9.0834394    9.0834394    9.0834394    56.782173 
  607000    289.86652   -11430.287            0   -10567.114    13336.374    748.84112     9.080921     9.080921     9.080921    47.216622 
Loop time of 1631.75 on 16 procs for 100000 steps with 1000 atoms

Performance: 5.295 ns/day, 4.533 hours/ns, 61.284 timesteps/s
94.6% CPU use with 16 MPI tasks x no OpenMP threads

MPI task timing breakdown:
Section |  min time  |  avg time  |  max time  |%varavg| %total
---------------------------------------------------------------
Pair    | 148.68     | 166.42     | 186.68     |  97.4 | 10.20
Neigh   | 57.235     | 61.742     | 67.338     |  38.0 |  3.78
Comm    | 30.164     | 55.995     | 78.218     | 206.6 |  3.43
Output  | 907.02     | 934.68     | 1344.8     | 346.4 | 57.28
Modify  | 2.0209     | 412.22     | 439.88     | 521.7 | 25.26
Other   |            | 0.697      |            |       |  0.04

Nlocal:    62.5 ave 70 max 56 min
Histogram: 1 1 3 3 1 3 0 1 1 2
Nghost:    1908.5 ave 1941 max 1879 min
Histogram: 2 2 2 0 2 2 2 0 3 1
Neighs:    0 ave 0 max 0 min
Histogram: 16 0 0 0 0 0 0 0 0 0
FullNghs:  19712.9 ave 22343 max 17915 min
Histogram: 4 0 4 1 1 3 0 0 1 2

Total # of neighbors = 315406
Ave neighs/atom = 315.406
Neighbor list builds = 100000
Dangerous builds not checked
Total wall time: 2:48:44
