LAMMPS (16 Mar 2018)
Reading data file ...
  orthogonal box = (-4.72703 -4.72703 -4.72703) to (4.72703 4.72703 4.72703)
  2 by 2 by 4 MPI processor grid
  reading atoms ...
  1000 atoms
Reading potential file /home/fs01/ajm529/lammps-16Mar18/potentials/sw_potentials/AG/eps2.23.sw with DATE: 2008-01-29
Neighbor list info ...
  update every 1 steps, delay 0 steps, check no
  max neighbors/atom: 2000, page size: 100000
  master list distance cutoff = 3.836
  ghost atom cutoff = 3.836
  binsize = 1.918, bins = 5 5 5
  1 neighbor lists, perpetual/occasional/extra = 1 0 0
  (1) pair sw, perpetual
      attributes: full, newton on
      pair build: full/bin/atomonly
      stencil: full/bin/3d
      bin: standard
Setting up Verlet run ...
  Unit style    : real
  Current step  : 0
  Time step     : 1
Per MPI rank memory allocation (min/avg/max) = 3.518 | 3.519 | 3.52 Mbytes
Step Temp E_pair E_mol TotEng Press Volume Lx Ly Lz S/CPU 
       0          300   -10165.446            0   -9272.0975   -46868.035    844.99948      9.45407      9.45407      9.45407            0 
     100    316.42779   -10217.603            0   -9275.3348   -48476.792     842.8905    9.4461982    9.4461982    9.4461982    44.177234 
     200    323.78135   -10251.445            0   -9287.2798   -30784.276    836.80375    9.4234053    9.4234053    9.4234053    50.716573 
     300    327.49961   -10279.899            0   -9304.6606   -41834.514    828.06043    9.3904703    9.3904703    9.3904703    48.692566 
     400     328.4828   -10305.301            0   -9327.1355   -8793.4129    817.49218      9.35035      9.35035      9.35035    42.870018 
     500    329.24973   -10327.347            0   -9346.8972    15972.597    807.08125    9.3104875    9.3104875    9.3104875    55.096267 
     600    330.55524   -10344.228            0   -9359.8913    5691.8611    798.72341    9.2782372    9.2782372    9.2782372    34.182746 
     700     334.3795    -10369.77            0   -9374.0446    2035.0616    792.69463    9.2548341    9.2548341    9.2548341    54.058324 
     800    324.54598    -10353.32            0   -9386.8778    9043.4063    788.60657    9.2388971    9.2388971    9.2388971    50.993443 
     900    323.48671   -10366.013            0   -9402.7245    2925.7177    785.85697     9.228147     9.228147     9.228147    35.982335 
    1000    318.95382   -10369.457            0   -9419.6668    4808.2942    784.08341    9.2211996    9.2211996    9.2211996    48.320982 
Loop time of 22.0217 on 16 procs for 1000 steps with 1000 atoms

Performance: 3.923 ns/day, 6.117 hours/ns, 45.410 timesteps/s
94.3% CPU use with 16 MPI tasks x no OpenMP threads

MPI task timing breakdown:
Section |  min time  |  avg time  |  max time  |%varavg| %total
---------------------------------------------------------------
Pair    | 1.7372     | 1.8524     | 1.9649     |   4.3 |  8.41
Neigh   | 0.71973    | 0.76482    | 0.80963    |   2.3 |  3.47
Comm    | 0.70313    | 0.86119    | 1.0233     |   8.2 |  3.91
Output  | 12.723     | 13.087     | 18.477     |  38.5 | 59.43
Modify  | 0.056683   | 5.4477     | 5.8126     |  59.6 | 24.74
Other   |            | 0.009103   |            |       |  0.04

Nlocal:    62.5 ave 67 max 58 min
Histogram: 3 0 1 2 1 2 3 1 2 1
Nghost:    1857.94 ave 1869 max 1839 min
Histogram: 1 1 1 0 2 2 2 1 0 6
Neighs:    0 ave 0 max 0 min
Histogram: 16 0 0 0 0 0 0 0 0 0
FullNghs:  18820.5 ave 20326 max 17422 min
Histogram: 3 0 2 1 1 2 3 1 2 1

Total # of neighbors = 301128
Ave neighs/atom = 301.128
Neighbor list builds = 1000
Dangerous builds not checked
Setting up Verlet run ...
  Unit style    : real
  Current step  : 1000
  Time step     : 1
Per MPI rank memory allocation (min/avg/max) = 3.52 | 4.31 | 4.579 Mbytes
Step Temp E_pair E_mol TotEng Press Volume Lx Ly Lz S/CPU 
    1000    318.95382   -10369.457            0   -9419.6668    4808.2942    784.08341    9.2211996    9.2211996    9.2211996            0 
    1100    306.90771   -10349.611            0   -9435.6922    2487.2501    782.92713    9.2166645    9.2166645    9.2166645    50.413627 
    1200    320.22938   -10407.203            0   -9453.6149    20823.496    782.13415    9.2135518    9.2135518    9.2135518    43.215752 
    1300    310.30246   -10392.928            0   -9468.8998    23394.132     782.0822    9.2133478    9.2133478    9.2133478    41.792041 
    1400    309.77316   -10408.655            0   -9486.2036    2593.1133    783.04687    9.2171344    9.2171344    9.2171344    42.721091 
    1500    305.65716   -10412.559            0   -9502.3643     11591.34    784.44497    9.2226167    9.2226167    9.2226167    46.126421 
    1600    308.45663   -10434.912            0   -9516.3811    13060.405    785.87051       9.2282       9.2282       9.2282     50.66053 
    1700    302.85922   -10433.011            0   -9531.1478    79.483802    786.86426    9.2320881    9.2320881    9.2320881    41.105579 
    1800    306.46434   -10457.475            0   -9544.8765    1084.0288    787.82605    9.2358481    9.2358481    9.2358481     48.15635 
    1900     296.7904   -10440.803            0   -9557.0119   -6764.5812     788.9682    9.2403091    9.2403091    9.2403091    44.128237 
    2000     302.5766   -10470.272            0   -9569.2501   -21086.141    789.94864    9.2441351    9.2441351    9.2441351    47.215994 
Loop time of 22.0664 on 16 procs for 1000 steps with 1000 atoms

Performance: 3.915 ns/day, 6.130 hours/ns, 45.318 timesteps/s
94.4% CPU use with 16 MPI tasks x no OpenMP threads

MPI task timing breakdown:
Section |  min time  |  avg time  |  max time  |%varavg| %total
---------------------------------------------------------------
Pair    | 1.9205     | 2.0258     | 2.1249     |   4.2 |  9.18
Neigh   | 0.76822    | 0.79509    | 0.825      |   2.0 |  3.60
Comm    | 0.69767    | 0.82401    | 0.95515    |   8.5 |  3.73
Output  | 12.366     | 12.746     | 18.331     |  40.4 | 57.76
Modify  | 0.087879   | 5.6658     | 6.0486     |  60.5 | 25.68
Other   |            | 0.009759   |            |       |  0.04

Nlocal:    62.5 ave 67 max 58 min
Histogram: 1 2 1 0 5 2 1 1 2 1
Nghost:    1842 ave 1858 max 1831 min
Histogram: 2 1 4 1 3 2 0 1 1 1
Neighs:    0 ave 0 max 0 min
Histogram: 16 0 0 0 0 0 0 0 0 0
FullNghs:  18684.6 ave 19970 max 17286 min
Histogram: 1 2 1 0 5 1 1 1 2 2

Total # of neighbors = 298954
Ave neighs/atom = 298.954
Neighbor list builds = 1000
Dangerous builds not checked
Setting up Verlet run ...
  Unit style    : real
  Current step  : 2000
  Time step     : 1
Per MPI rank memory allocation (min/avg/max) = 4.578 | 4.579 | 4.579 Mbytes
Step Temp E_pair E_mol TotEng Press Volume Lx Ly Lz S/CPU 
    2000     302.5766   -10470.272            0   -9569.2501   -21086.141    789.94864    9.2441351    9.2441351    9.2441351            0 
    2100    303.39572   -10483.694            0   -9580.2335   -13694.753    790.29688    9.2454933    9.2454933    9.2454933    48.408646 
    2200    298.85708   -10480.026            0    -9590.081   -27139.055    789.85609    9.2437741    9.2437741    9.2437741    37.059946 
    2300    302.81768   -10501.821            0   -9600.0819   -14346.246    788.61994    9.2389493    9.2389493    9.2389493    53.313648 
    2400     295.6891   -10488.659            0   -9608.1475    7629.3623     786.9996    9.2326174    9.2326174    9.2326174    48.368805 
    2500    287.98606   -10473.032            0   -9615.4587    15484.037    785.69154    9.2274994    9.2274994    9.2274994    39.529616 
    2600    297.78211   -10509.816            0   -9623.0721   -632.73798    784.71849    9.2236885    9.2236885    9.2236885    43.154115 
    2700    290.55995   -10493.565            0   -9628.3269    9119.7469    784.03388    9.2210054    9.2210054    9.2210054    47.434241 
    2800    299.17783   -10524.412            0   -9633.5115   -4950.1962    783.66774    9.2195698    9.2195698    9.2195698    38.836592 
    2900    297.37679   -10522.714            0   -9637.1765    2817.7852    783.09045    9.2173054    9.2173054    9.2173054    49.173825 
    3000    286.77591   -10491.727            0   -9637.7572    1742.3694    782.62857    9.2154928    9.2154928    9.2154928     45.20679 
Loop time of 22.483 on 16 procs for 1000 steps with 1000 atoms

Performance: 3.843 ns/day, 6.245 hours/ns, 44.478 timesteps/s
94.4% CPU use with 16 MPI tasks x no OpenMP threads

MPI task timing breakdown:
Section |  min time  |  avg time  |  max time  |%varavg| %total
---------------------------------------------------------------
Pair    | 1.8802     | 1.9836     | 2.1115     |   4.7 |  8.82
Neigh   | 0.74682    | 0.78297    | 0.84141    |   2.6 |  3.48
Comm    | 0.7166     | 0.90318    | 1.0364     |   9.1 |  4.02
Output  | 12.62      | 13.007     | 18.754     |  41.1 | 57.85
Modify  | 0.049134   | 5.7966     | 6.184      |  61.6 | 25.78
Other   |            | 0.009172   |            |       |  0.04

Nlocal:    62.5 ave 67 max 55 min
Histogram: 1 0 0 0 3 4 1 2 3 2
Nghost:    1858.62 ave 1879 max 1833 min
Histogram: 1 1 1 2 1 2 3 1 3 1
Neighs:    0 ave 0 max 0 min
Histogram: 16 0 0 0 0 0 0 0 0 0
FullNghs:  18865.5 ave 20147 max 16520 min
Histogram: 1 0 0 0 3 2 3 1 4 2

Total # of neighbors = 301848
Ave neighs/atom = 301.848
Neighbor list builds = 1000
Dangerous builds not checked
Setting up Verlet run ...
  Unit style    : real
  Current step  : 3000
  Time step     : 1
Per MPI rank memory allocation (min/avg/max) = 4.578 | 4.579 | 4.579 Mbytes
Step Temp E_pair E_mol TotEng Press Volume Lx Ly Lz S/CPU 
    3000    286.77591   -10491.727            0   -9637.7572    1742.3694    782.62857    9.2154928    9.2154928    9.2154928            0 
    3100    300.72521   -10534.701            0   -9639.1929   -9645.6897     782.1035    9.2134315    9.2134315    9.2134315    40.000689 
    3200    299.07415   -10529.035            0   -9638.4428    -4916.321     781.5092    9.2110972    9.2110972    9.2110972    47.643712 
    3300      295.746   -10515.936            0   -9635.2552    3893.8416    780.86134    9.2085512    9.2085512    9.2085512    38.057308 
    3400    303.93595   -10536.574            0    -9631.505   -10200.567     780.3991    9.2067338    9.2067338    9.2067338     41.26195 
    3500    282.58371   -10466.517            0   -9625.0314   -1392.1959    779.44372    9.2029753    9.2029753    9.2029753    54.226037 
    3600    298.56453   -10508.109            0   -9619.0344   -4013.3339    778.43634    9.1990088    9.1990088    9.1990088    34.399439 
    3700     289.3323   -10471.185            0   -9609.6033    11731.821    777.79992    9.1965012    9.1965012    9.1965012    45.775716 
    3800    292.56677   -10472.193            0   -9600.9789    4781.2931    777.65606    9.1959342    9.1959342    9.1959342    50.159689 
    3900    298.82991   -10481.957            0   -9592.0922    3211.2998    777.50088    9.1953225    9.1953225    9.1953225    45.309542 
    4000    311.33779   -10511.397            0   -9584.2863    5785.0434     777.1986    9.1941306    9.1941306    9.1941306    46.741828 
Loop time of 22.9259 on 16 procs for 1000 steps with 1000 atoms

Performance: 3.769 ns/day, 6.368 hours/ns, 43.619 timesteps/s
94.4% CPU use with 16 MPI tasks x no OpenMP threads

MPI task timing breakdown:
Section |  min time  |  avg time  |  max time  |%varavg| %total
---------------------------------------------------------------
Pair    | 1.8973     | 2.0365     | 2.1946     |   4.7 |  8.88
Neigh   | 0.75649    | 0.79309    | 0.85559    |   2.6 |  3.46
Comm    | 0.64441    | 0.86601    | 1.0418     |   9.6 |  3.78
Output  | 13.261     | 13.633     | 19.156     |  38.6 | 59.47
Modify  | 0.065438   | 5.5876     | 5.9599     |  60.3 | 24.37
Other   |            | 0.009304   |            |       |  0.04

Nlocal:    62.5 ave 69 max 55 min
Histogram: 1 1 3 0 2 2 2 2 1 2
Nghost:    1863.69 ave 1872 max 1846 min
Histogram: 1 0 0 0 3 1 2 4 1 4
Neighs:    0 ave 0 max 0 min
Histogram: 16 0 0 0 0 0 0 0 0 0
FullNghs:  18983.6 ave 21267 max 16705 min
Histogram: 2 0 3 1 2 2 3 1 0 2

Total # of neighbors = 303738
Ave neighs/atom = 303.738
Neighbor list builds = 1000
Dangerous builds not checked
Setting up Verlet run ...
  Unit style    : real
  Current step  : 4000
  Time step     : 1
Per MPI rank memory allocation (min/avg/max) = 4.578 | 4.579 | 4.579 Mbytes
Step Temp E_pair E_mol TotEng Press Volume Lx Ly Lz S/CPU 
    4000    311.33779   -10511.397            0   -9584.2863    5785.0434     777.1986    9.1941306    9.1941306    9.1941306            0 
    4100    306.79764   -10490.281            0   -9576.6896    13261.989    777.41123     9.194969     9.194969     9.194969    54.486433 
    4200    302.84704   -10472.123            0   -9570.2959    472.40808    778.56655    9.1995217    9.1995217    9.1995217    39.031671 
    4300    305.38952   -10476.013            0   -9566.6153    9511.8702    779.95867    9.2050015    9.2050015    9.2050015    50.630886 
    4400    295.43589   -10443.027            0   -9563.2697   -1457.3619    781.92101    9.2127148    9.2127148    9.2127148    48.055978 
    4500     307.2663   -10476.574            0   -9561.5873   -2546.0055    784.05455    9.2210864    9.2210864    9.2210864    39.844754 
    4600    289.43318   -10421.758            0    -9559.875    4963.3642    785.90263    9.2283257    9.2283257    9.2283257    45.782217 
    4700    297.28459   -10445.554            0    -9560.291   -4723.6485    788.02134    9.2366111    9.2366111    9.2366111    49.455538 
    4800    296.46695   -10442.828            0   -9560.0004   -18813.978    789.58435    9.2427139    9.2427139    9.2427139    36.252091 
    4900    299.42913   -10452.345            0   -9560.6958   -12067.021    789.66872    9.2430431    9.2430431    9.2430431    49.126421 
    5000     294.5757    -10437.75            0   -9560.5542   -10608.756    788.45871    9.2383197    9.2383197    9.2383197    50.100123 
Loop time of 21.9594 on 16 procs for 1000 steps with 1000 atoms

Performance: 3.935 ns/day, 6.100 hours/ns, 45.539 timesteps/s
94.4% CPU use with 16 MPI tasks x no OpenMP threads

MPI task timing breakdown:
Section |  min time  |  avg time  |  max time  |%varavg| %total
---------------------------------------------------------------
Pair    | 1.9082     | 2.0282     | 2.1213     |   3.7 |  9.24
Neigh   | 0.76619    | 0.79392    | 0.82075    |   1.8 |  3.62
Comm    | 0.73818    | 0.84563    | 0.99364    |   7.0 |  3.85
Output  | 12.586     | 12.94      | 18.185     |  37.6 | 58.93
Modify  | 0.094212   | 5.3419     | 5.6961     |  58.6 | 24.33
Other   |            | 0.01006    |            |       |  0.05

Nlocal:    62.5 ave 68 max 56 min
Histogram: 1 1 2 0 1 3 5 1 0 2
Nghost:    1858.5 ave 1889 max 1820 min
Histogram: 2 0 2 1 0 3 2 2 2 2
Neighs:    0 ave 0 max 0 min
Histogram: 16 0 0 0 0 0 0 0 0 0
FullNghs:  18711.9 ave 20636 max 16854 min
Histogram: 1 2 1 1 2 3 4 0 1 1

Total # of neighbors = 299390
Ave neighs/atom = 299.39
Neighbor list builds = 1000
Dangerous builds not checked
Setting up Verlet run ...
  Unit style    : real
  Current step  : 5000
  Time step     : 1
Per MPI rank memory allocation (min/avg/max) = 4.578 | 4.579 | 4.579 Mbytes
Step Temp E_pair E_mol TotEng Press Volume Lx Ly Lz S/CPU 
    5000     294.5757    -10437.75            0   -9560.5542   -10608.756    788.45871    9.2383197    9.2383197    9.2383197            0 
    5100    309.92711   -10484.397            0   -9561.4866   -7749.9829    786.53908    9.2308161    9.2308161    9.2308161    46.579445 
    5200     301.0863   -10459.831            0   -9563.2471    2215.3031    784.34583    9.2222282    9.2222282    9.2222282    47.144715 
    5300    308.13872   -10486.515            0   -9568.9303    8889.2789    782.03872    9.2131771    9.2131771    9.2131771    49.547353 
    5400    297.86354   -10464.875            0   -9577.8886    16235.439    780.05709    9.2053887    9.2053887    9.2053887    43.360469 
    5500    305.43636   -10500.725            0   -9591.1876    3722.0722    778.88369    9.2007706    9.2007706    9.2007706    41.516332 
    5600    300.46336    -10499.63            0   -9604.9014    5789.3904    778.46277    9.1991129    9.1991129    9.1991129    39.205511 
    5700    305.33722   -10529.923            0   -9620.6811    8634.3803    778.78201    9.2003702    9.2003702    9.2003702    48.804341 
    5800    296.47337   -10516.147            0   -9633.2997    13198.146    780.12935    9.2056729    9.2056729    9.2056729    40.053105 
    5900     292.4598   -10513.526            0   -9642.6302   -5241.2165    782.35703    9.2144269    9.2144269    9.2144269    46.342753 
    6000    284.90542   -10496.013            0    -9647.613   -10195.344     784.8115    9.2240529    9.2240529    9.2240529    48.296391 
Loop time of 22.326 on 16 procs for 1000 steps with 1000 atoms

Performance: 3.870 ns/day, 6.202 hours/ns, 44.791 timesteps/s
94.4% CPU use with 16 MPI tasks x no OpenMP threads

MPI task timing breakdown:
Section |  min time  |  avg time  |  max time  |%varavg| %total
---------------------------------------------------------------
Pair    | 1.8266     | 1.9804     | 2.0929     |   5.5 |  8.87
Neigh   | 0.73851    | 0.77541    | 0.82894    |   2.6 |  3.47
Comm    | 0.76724    | 0.89732    | 1.0872     |  10.2 |  4.02
Output  | 12.707     | 13.079     | 18.608     |  39.5 | 58.58
Modify  | 0.054798   | 5.5843     | 5.9578     |  60.4 | 25.01
Other   |            | 0.009167   |            |       |  0.04

Nlocal:    62.5 ave 70 max 59 min
Histogram: 7 0 2 1 2 2 0 1 0 1
Nghost:    1848.69 ave 1862 max 1836 min
Histogram: 2 3 1 1 1 2 2 0 1 3
Neighs:    0 ave 0 max 0 min
Histogram: 16 0 0 0 0 0 0 0 0 0
FullNghs:  18790.5 ave 21027 max 17588 min
Histogram: 3 4 1 1 3 1 1 1 0 1

Total # of neighbors = 300648
Ave neighs/atom = 300.648
Neighbor list builds = 1000
Dangerous builds not checked
Setting up Verlet run ...
  Unit style    : real
  Current step  : 6000
  Time step     : 1
Per MPI rank memory allocation (min/avg/max) = 4.578 | 4.579 | 4.579 Mbytes
Step Temp E_pair E_mol TotEng Press Volume Lx Ly Lz S/CPU 
    6000    284.90542   -10496.013            0    -9647.613   -10195.344     784.8115    9.2240529    9.2240529    9.2240529            0 
    6100    288.56209   -10510.355            0   -9651.0662   -5074.4125    786.94707    9.2324119    9.2324119    9.2324119    43.755803 
    6200    297.87282   -10539.319            0   -9652.3044   -2898.7266    788.71936    9.2393376    9.2393376    9.2393376    45.628796 
    6300    294.84465   -10529.473            0    -9651.476   -19917.183    789.99267    9.2443069    9.2443069    9.2443069    44.574411 
    6400    285.62889    -10499.78            0   -9649.2261   -25656.157    790.53632    9.2464269    9.2464269    9.2464269    47.523286 
    6500    295.55012    -10526.06            0   -9645.9624   -3947.7294     790.1548    9.2449392    9.2449392    9.2449392    40.289573 
    6600    292.44066   -10512.021            0   -9641.1827    6896.8179    789.35142    9.2418049    9.2418049    9.2418049    43.768714 
    6700    299.38468   -10524.347            0   -9632.8303   -3833.1937    788.21841     9.237381     9.237381     9.237381    55.014996 
    6800     295.7147   -10503.981            0   -9623.3927   -6529.7987    786.55043    9.2308606    9.2308606    9.2308606    33.384396 
    6900    310.11378   -10537.031            0   -9613.5652   -10318.658    784.21791    9.2217268    9.2217268    9.2217268    46.975647 
    7000    292.61265   -10474.654            0   -9603.3036    451.94507    781.15788    9.2097167    9.2097167    9.2097167    45.002661 
Loop time of 22.7554 on 16 procs for 1000 steps with 1000 atoms

Performance: 3.797 ns/day, 6.321 hours/ns, 43.946 timesteps/s
94.4% CPU use with 16 MPI tasks x no OpenMP threads

MPI task timing breakdown:
Section |  min time  |  avg time  |  max time  |%varavg| %total
---------------------------------------------------------------
Pair    | 1.8543     | 1.9809     | 2.1089     |   5.7 |  8.71
Neigh   | 0.73318    | 0.78353    | 0.81992    |   3.1 |  3.44
Comm    | 0.70315    | 0.86093    | 1.0353     |  11.3 |  3.78
Output  | 13.605     | 13.948     | 19.036     |  35.2 | 61.30
Modify  | 0.083965   | 5.1724     | 5.5161     |  57.8 | 22.73
Other   |            | 0.009187   |            |       |  0.04

Nlocal:    62.5 ave 68 max 58 min
Histogram: 1 1 2 3 0 4 3 0 0 2
Nghost:    1855.94 ave 1866 max 1843 min
Histogram: 1 0 1 2 1 4 3 1 1 2
Neighs:    0 ave 0 max 0 min
Histogram: 16 0 0 0 0 0 0 0 0 0
FullNghs:  18868.6 ave 20631 max 17470 min
Histogram: 1 2 4 0 2 5 0 0 0 2

Total # of neighbors = 301898
Ave neighs/atom = 301.898
Neighbor list builds = 1000
Dangerous builds not checked
Setting up Verlet run ...
  Unit style    : real
  Current step  : 7000
  Time step     : 1
Per MPI rank memory allocation (min/avg/max) = 4.578 | 4.579 | 4.579 Mbytes
Step Temp E_pair E_mol TotEng Press Volume Lx Ly Lz S/CPU 
    7000    292.61265   -10474.654            0   -9603.3036    451.94507    781.15788    9.2097167    9.2097167    9.2097167            0 
    7100    314.30685   -10532.227            0   -9596.2748    11893.896    778.43225    9.1989927    9.1989927    9.1989927    41.063998 
    7200    296.10619   -10469.008            0   -9587.2539     27543.16    776.86669    9.1928216    9.1928216    9.1928216    44.714121 
    7300    300.39109   -10477.803            0   -9583.2901    29062.346    776.81983    9.1926368    9.1926368    9.1926368    37.496391 
    7400    302.92965   -10481.554            0   -9579.4808    8574.4239    778.22429    9.1981734    9.1981734    9.1981734    45.076309 
    7500    309.98775   -10501.266            0   -9578.1756   -11402.654    780.52519    9.2072296    9.2072296    9.2072296    43.056926 
    7600     299.9087    -10469.51            0   -9576.4328    -3282.042    782.96009    9.2167939    9.2167939    9.2167939    48.891173 
    7700    292.29188   -10446.473            0   -9576.0774   -24016.465    785.08986    9.2251433    9.2251433    9.2251433    48.359807 
    7800    310.79775   -10501.493            0   -9575.9908   -6213.7345    786.40694    9.2302992    9.2302992    9.2302992    39.778389 
    7900    301.19291   -10472.605            0   -9575.7041    10804.475    787.27319    9.2336871    9.2336871    9.2336871    50.012556 
    8000    298.22209   -10462.738            0   -9574.6837    5599.6126    788.12589    9.2370196    9.2370196    9.2370196    41.477373 
Loop time of 22.9171 on 16 procs for 1000 steps with 1000 atoms

Performance: 3.770 ns/day, 6.366 hours/ns, 43.635 timesteps/s
94.4% CPU use with 16 MPI tasks x no OpenMP threads

MPI task timing breakdown:
Section |  min time  |  avg time  |  max time  |%varavg| %total
---------------------------------------------------------------
Pair    | 1.8888     | 1.9975     | 2.1492     |   5.2 |  8.72
Neigh   | 0.75708    | 0.77867    | 0.80765    |   1.9 |  3.40
Comm    | 0.72687    | 0.90596    | 1.0362     |   9.1 |  3.95
Output  | 12.903     | 13.296     | 19.137     |  41.4 | 58.02
Modify  | 0.089753   | 5.9294     | 6.3231     |  61.9 | 25.87
Other   |            | 0.009238   |            |       |  0.04

Nlocal:    62.5 ave 66 max 58 min
Histogram: 1 1 3 2 0 0 3 1 2 3
Nghost:    1845.75 ave 1867 max 1820 min
Histogram: 1 1 2 2 0 2 3 0 2 3
Neighs:    0 ave 0 max 0 min
Histogram: 16 0 0 0 0 0 0 0 0 0
FullNghs:  18737.2 ave 19850 max 17218 min
Histogram: 1 1 2 1 2 0 4 0 1 4

Total # of neighbors = 299796
Ave neighs/atom = 299.796
Neighbor list builds = 1000
Dangerous builds not checked
Setting up Verlet run ...
  Unit style    : real
  Current step  : 8000
  Time step     : 1
Per MPI rank memory allocation (min/avg/max) = 4.578 | 4.579 | 4.579 Mbytes
Step Temp E_pair E_mol TotEng Press Volume Lx Ly Lz S/CPU 
    8000    298.22209   -10462.738            0   -9574.6837    5599.6126    788.12589    9.2370196    9.2370196    9.2370196            0 
    8100    306.61955   -10490.373            0   -9577.3124   -14168.398    788.61836    9.2389431    9.2389431    9.2389431    41.723582 
    8200    316.25133   -10523.221            0   -9581.4788    10059.972     788.4667    9.2383509    9.2383509    9.2383509     50.72842 
    8300    310.82832   -10512.186            0   -9586.5927   -7675.3074     788.1398    9.2370739    9.2370739    9.2370739    38.322902 
    8400    297.63539   -10479.352            0   -9593.0447   -2264.6732    787.56413    9.2348244    9.2348244    9.2348244    47.827114 
    8500    300.04604   -10493.355            0   -9599.8694   -300.30778     787.0233      9.23271      9.23271      9.23271    46.519728 
    8600     298.6176   -10494.184            0   -9604.9514   -6963.0026    786.13826    9.2292479    9.2292479    9.2292479    37.202756 
    8700    307.11694   -10524.616            0   -9610.0746    2319.6065    785.10533    9.2252039    9.2252039    9.2252039    48.737302 
    8800    301.21278   -10511.214            0   -9614.2538    10785.044    784.11276    9.2213146    9.2213146    9.2213146    45.841006 
    8900    295.60433   -10496.648            0   -9616.3885   -6672.2575    783.61389    9.2193586    9.2193586    9.2193586    45.029717 
    9000    292.43788   -10487.737            0   -9616.9069    12735.225    783.37141    9.2184076    9.2184076    9.2184076    52.192025 
Loop time of 22.2759 on 16 procs for 1000 steps with 1000 atoms

Performance: 3.879 ns/day, 6.188 hours/ns, 44.892 timesteps/s
94.4% CPU use with 16 MPI tasks x no OpenMP threads

MPI task timing breakdown:
Section |  min time  |  avg time  |  max time  |%varavg| %total
---------------------------------------------------------------
Pair    | 1.8684     | 1.9976     | 2.1634     |   5.6 |  8.97
Neigh   | 0.75575    | 0.78801    | 0.8398     |   2.4 |  3.54
Comm    | 0.6554     | 0.87308    | 1.0352     |  10.6 |  3.92
Output  | 12.593     | 12.969     | 18.552     |  40.0 | 58.22
Modify  | 0.055948   | 5.6388     | 6.0149     |  60.7 | 25.31
Other   |            | 0.009233   |            |       |  0.04

Nlocal:    62.5 ave 67 max 57 min
Histogram: 1 1 0 1 3 1 3 2 2 2
Nghost:    1854.44 ave 1865 max 1839 min
Histogram: 2 1 0 0 2 1 3 1 5 1
Neighs:    0 ave 0 max 0 min
Histogram: 16 0 0 0 0 0 0 0 0 0
FullNghs:  18846.4 ave 20092 max 17150 min
Histogram: 1 1 0 2 2 2 2 2 1 3

Total # of neighbors = 301542
Ave neighs/atom = 301.542
Neighbor list builds = 1000
Dangerous builds not checked
Setting up Verlet run ...
  Unit style    : real
  Current step  : 9000
  Time step     : 1
Per MPI rank memory allocation (min/avg/max) = 4.578 | 4.579 | 4.579 Mbytes
Step Temp E_pair E_mol TotEng Press Volume Lx Ly Lz S/CPU 
    9000    292.43788   -10487.737            0   -9616.9069    12735.225    783.37141    9.2184076    9.2184076    9.2184076            0 
    9100    308.32033   -10535.551            0   -9617.4254    2710.3329    783.86202    9.2203316    9.2203316    9.2203316    43.384427 
    9200    296.97341   -10501.085            0   -9616.7487    1160.1898    784.99538    9.2247732    9.2247732    9.2247732    49.056671 
    9300    297.50719   -10501.184            0   -9615.2579   -2837.6179    785.91789    9.2283854    9.2283854    9.2283854    48.517437 
    9400    302.55967   -10515.813            0    -9614.842    1642.6789    786.33091    9.2300017    9.2300017    9.2300017    35.970102 
    9500    296.99998   -10498.723            0   -9614.3076   -16191.832    786.37943    9.2301916    9.2301916    9.2301916    44.428919 
    9600    301.67968   -10512.676            0   -9614.3256    1275.0719    786.09288    9.2290703    9.2290703    9.2290703    41.219082 
    9700    308.43714   -10532.277            0   -9613.8042   -9971.0944    785.57081    9.2270267    9.2270267    9.2270267    45.291585 
    9800    286.67499    -10463.96            0   -9610.2912    6380.0836    784.64705    9.2234086    9.2234086    9.2234086    46.680349 
    9900    296.72267   -10492.704            0   -9609.1149   -89.838822    783.62364    9.2193968    9.2193968    9.2193968    44.536065 
   10000    290.81643   -10471.388            0   -9605.3866    6967.6605    782.50608     9.215012     9.215012     9.215012    49.156694 
Loop time of 22.4913 on 16 procs for 1000 steps with 1000 atoms

Performance: 3.841 ns/day, 6.248 hours/ns, 44.462 timesteps/s
94.4% CPU use with 16 MPI tasks x no OpenMP threads

MPI task timing breakdown:
Section |  min time  |  avg time  |  max time  |%varavg| %total
---------------------------------------------------------------
Pair    | 1.9108     | 1.989      | 2.1341     |   4.5 |  8.84
Neigh   | 0.75344    | 0.78485    | 0.84317    |   2.5 |  3.49
Comm    | 0.71258    | 0.91754    | 1.0277     |   8.9 |  4.08
Output  | 12.497     | 12.892     | 18.747     |  42.1 | 57.32
Modify  | 0.045161   | 5.8985     | 6.2935     |  62.2 | 26.23
Other   |            | 0.00919    |            |       |  0.04

Nlocal:    62.5 ave 68 max 59 min
Histogram: 1 2 3 4 1 2 1 1 0 1
Nghost:    1863.06 ave 1879 max 1844 min
Histogram: 3 0 1 1 1 1 2 3 2 2
Neighs:    0 ave 0 max 0 min
Histogram: 16 0 0 0 0 0 0 0 0 0
FullNghs:  18859.9 ave 20840 max 17923 min
Histogram: 2 5 2 2 1 2 0 1 0 1

Total # of neighbors = 301758
Ave neighs/atom = 301.758
Neighbor list builds = 1000
Dangerous builds not checked
Setting up Verlet run ...
  Unit style    : real
  Current step  : 10000
  Time step     : 1
Per MPI rank memory allocation (min/avg/max) = 4.578 | 4.579 | 4.579 Mbytes
Step Temp E_pair E_mol TotEng Press Volume Lx Ly Lz S/CPU 
   10000    290.81643   -10471.388            0   -9605.3866    6967.6605    782.50608     9.215012     9.215012     9.215012            0 
   10100    298.36438   -10488.292            0   -9599.8143    10475.474    781.52847    9.2111729    9.2111729    9.2111729     44.82505 
   10200    285.71012   -10445.177            0   -9594.3811   -779.29483    780.66146    9.2077654    9.2077654    9.2077654    35.462756 
   10300    300.06016   -10481.191            0   -9587.6628   -1295.4314    779.56412    9.2034491    9.2034491    9.2034491    40.229238 
   10400    311.00673   -10508.072            0   -9581.9466    3264.9831    778.47169     9.199148     9.199148     9.199148    44.780774 
   10500    310.93737   -10502.891            0   -9576.9723   -10914.878     777.6912    9.1960727    9.1960727    9.1960727    37.836066 
   10600    320.51594   -10528.831            0   -9574.3895     7439.152    777.10838    9.1937748    9.1937748    9.1937748    48.986383 
   10700    321.67319   -10532.477            0   -9574.5888    9974.1847     777.5979    9.1957049    9.1957049    9.1957049    40.808255 
   10800    311.17392   -10503.659            0    -9577.036    10453.589    779.18259    9.2019474    9.2019474    9.2019474    30.854244 
   10900    304.39247   -10488.746            0    -9582.317   -4854.5884    781.00419    9.2091127    9.2091127    9.2091127      49.5026 
   11000    310.95013   -10519.094            0   -9593.1373    2790.3795    783.11118    9.2173867    9.2173867    9.2173867     33.40197 
Loop time of 25.1595 on 16 procs for 1000 steps with 1000 atoms

Performance: 3.434 ns/day, 6.989 hours/ns, 39.746 timesteps/s
94.3% CPU use with 16 MPI tasks x no OpenMP threads

MPI task timing breakdown:
Section |  min time  |  avg time  |  max time  |%varavg| %total
---------------------------------------------------------------
Pair    | 1.893      | 2.0284     | 2.1719     |   5.0 |  8.06
Neigh   | 0.74555    | 0.78785    | 0.81663    |   1.8 |  3.13
Comm    | 0.70117    | 0.87218    | 1.0499     |   9.0 |  3.47
Output  | 14.187     | 14.639     | 21.353     |  45.3 | 58.18
Modify  | 0.11051    | 6.8228     | 7.2749     |  66.4 | 27.12
Other   |            | 0.009288   |            |       |  0.04

Nlocal:    62.5 ave 66 max 55 min
Histogram: 1 0 0 0 1 3 3 2 2 4
Nghost:    1859.19 ave 1886 max 1834 min
Histogram: 1 4 2 0 1 2 1 2 1 2
Neighs:    0 ave 0 max 0 min
Histogram: 16 0 0 0 0 0 0 0 0 0
FullNghs:  18858.9 ave 20199 max 16302 min
Histogram: 1 0 0 0 2 4 2 2 2 3

Total # of neighbors = 301742
Ave neighs/atom = 301.742
Neighbor list builds = 1000
Dangerous builds not checked
Setting up Verlet run ...
  Unit style    : real
  Current step  : 11000
  Time step     : 1
Per MPI rank memory allocation (min/avg/max) = 4.578 | 4.579 | 4.579 Mbytes
Step Temp E_pair E_mol TotEng Press Volume Lx Ly Lz S/CPU 
   11000    310.95013   -10519.094            0   -9593.1373    2790.3795    783.11118    9.2173867    9.2173867    9.2173867            0 
   11100     310.4202   -10530.316            0   -9605.9379    -56.12436    785.65671    9.2273631    9.2273631    9.2273631    47.624973 
   11200    307.08887   -10534.508            0     -9620.05   -9131.1798    788.21291    9.2373595    9.2373595    9.2373595    39.299594 
   11300    294.07666   -10508.427            0   -9632.7165   -14329.723    790.26061    9.2453519    9.2453519    9.2453519    43.472007 
   11400    289.25669   -10504.466            0   -9643.1091   -31687.834    791.26559    9.2492694    9.2492694    9.2492694    49.183695 
   11500    289.85574   -10512.836            0   -9649.6954   -7914.6852    790.77321    9.2473504    9.2473504    9.2473504    44.944617 
   11600    297.53109   -10542.251            0   -9656.2541   -11485.383     789.2879    9.2415571    9.2415571    9.2415571    50.041393 
   11700    289.90886   -10522.272            0   -9658.9727   -20146.204    786.91765    9.2322969    9.2322969    9.2322969    44.435027 
   11800    294.55424   -10537.083            0   -9659.9506   -1974.8926    783.23486    9.2178719    9.2178719    9.2178719    40.061723 
   11900    294.15793   -10534.225            0   -9658.2733    -2366.471    778.98827    9.2011824    9.2011824    9.2011824    49.171212 
   12000    296.54642   -10539.376            0   -9656.3111    5188.1359    774.57418    9.1837701    9.1837701    9.1837701    41.302976 
Loop time of 22.4026 on 16 procs for 1000 steps with 1000 atoms

Performance: 3.857 ns/day, 6.223 hours/ns, 44.638 timesteps/s
94.3% CPU use with 16 MPI tasks x no OpenMP threads

MPI task timing breakdown:
Section |  min time  |  avg time  |  max time  |%varavg| %total
---------------------------------------------------------------
Pair    | 1.8727     | 2.0068     | 2.1201     |   4.7 |  8.96
Neigh   | 0.76325    | 0.79285    | 0.81082    |   1.7 |  3.54
Comm    | 0.73257    | 0.86344    | 1.0271     |   8.6 |  3.85
Output  | 12.837     | 13.21      | 18.604     |  38.3 | 58.96
Modify  | 0.12574    | 5.5207     | 5.8956     |  59.3 | 24.64
Other   |            | 0.009325   |            |       |  0.04

Nlocal:    62.5 ave 67 max 59 min
Histogram: 1 4 1 2 0 2 2 3 0 1
Nghost:    1872.62 ave 1897 max 1849 min
Histogram: 2 1 4 0 1 1 0 4 0 3
Neighs:    0 ave 0 max 0 min
Histogram: 16 0 0 0 0 0 0 0 0 0
FullNghs:  19045.8 ave 20652 max 17958 min
Histogram: 3 2 1 3 1 2 0 3 0 1

Total # of neighbors = 304732
Ave neighs/atom = 304.732
Neighbor list builds = 1000
Dangerous builds not checked
Setting up Verlet run ...
  Unit style    : real
  Current step  : 12000
  Time step     : 1
Per MPI rank memory allocation (min/avg/max) = 4.578 | 4.579 | 4.579 Mbytes
Step Temp E_pair E_mol TotEng Press Volume Lx Ly Lz S/CPU 
   12000    296.54642   -10539.376            0   -9656.3111    5188.1359    774.57418    9.1837701    9.1837701    9.1837701            0 
   12100    294.92809   -10530.413            0   -9652.1678   -1793.6761    770.80197    9.1688374    9.1688374    9.1688374    43.161409 
   12200    306.83645   -10561.779            0   -9648.0729    19150.702    767.98939    9.1576718    9.1576718    9.1576718    48.162464 
   12300    293.51319   -10517.935            0   -9643.9027    18152.005    766.58352    9.1520804    9.1520804    9.1520804    38.747531 
   12400    289.64177   -10499.969            0   -9637.4656    29581.286    766.47479    9.1516477    9.1516477    9.1516477    47.999614 
   12500    297.42195   -10518.634            0   -9632.9624    19064.836    767.86246    9.1571672    9.1571672    9.1571672    41.760824 
   12600    301.29017   -10524.304            0    -9627.113    7924.0836    770.23643    9.1665945    9.1665945    9.1665945    51.414654 
   12700    298.21802   -10506.352            0   -9618.3097     14549.06    773.38707    9.1790761    9.1790761    9.1790761    39.741102 
   12800    292.64997   -10479.572            0   -9608.1099    4414.1858    777.48593    9.1952635    9.1952635    9.1952635    34.691132 
   12900    309.18781   -10515.664            0   -9594.9559   -7699.3848     781.6845    9.2117859    9.2117859    9.2117859    36.934761 
   13000    307.63264   -10497.488            0    -9581.411   -904.21536    785.25142    9.2257761    9.2257761    9.2257761    33.160337 
Loop time of 24.5189 on 16 procs for 1000 steps with 1000 atoms

Performance: 3.524 ns/day, 6.811 hours/ns, 40.785 timesteps/s
94.3% CPU use with 16 MPI tasks x no OpenMP threads

MPI task timing breakdown:
Section |  min time  |  avg time  |  max time  |%varavg| %total
---------------------------------------------------------------
Pair    | 1.98       | 2.0698     | 2.124      |   3.1 |  8.44
Neigh   | 0.76541    | 0.79401    | 0.82226    |   1.9 |  3.24
Comm    | 0.80451    | 0.87046    | 0.98216    |   6.3 |  3.55
Output  | 14.446     | 14.841     | 20.689     |  39.2 | 60.53
Modify  | 0.084205   | 5.9346     | 6.3293     |  62.0 | 24.20
Other   |            | 0.009408   |            |       |  0.04

Nlocal:    62.5 ave 68 max 57 min
Histogram: 1 1 3 0 3 2 2 2 1 1
Nghost:    1852.88 ave 1871 max 1835 min
Histogram: 2 0 2 3 2 0 4 0 1 2
Neighs:    0 ave 0 max 0 min
Histogram: 16 0 0 0 0 0 0 0 0 0
FullNghs:  18824.9 ave 20811 max 17026 min
Histogram: 1 1 2 1 4 2 3 1 0 1

Total # of neighbors = 301198
Ave neighs/atom = 301.198
Neighbor list builds = 1000
Dangerous builds not checked
Setting up Verlet run ...
  Unit style    : real
  Current step  : 13000
  Time step     : 1
Per MPI rank memory allocation (min/avg/max) = 4.578 | 4.579 | 4.58 Mbytes
Step Temp E_pair E_mol TotEng Press Volume Lx Ly Lz S/CPU 
   13000    307.63264   -10497.488            0    -9581.411   -904.21536    785.25142    9.2257761    9.2257761    9.2257761            0 
   13100    298.10553   -10455.746            0   -9568.0387   -11194.161     788.2668      9.23757      9.23757      9.23757     49.59611 
   13200    305.60725   -10469.491            0   -9559.4449   -5194.5731    790.40839    9.2459282    9.2459282    9.2459282    48.050176 
   13300     306.2998   -10464.809            0   -9552.7002   -7647.3452     791.7729    9.2512456    9.2512456    9.2512456     38.19891 
   13400    300.57513   -10444.193            0   -9549.1314   -12971.186    792.18478    9.2528495    9.2528495    9.2528495    51.122999 
   13500    307.99256   -10468.066            0   -9550.9166   -22201.475    791.50653    9.2502081    9.2502081    9.2502081    41.732103 
   13600    291.13684   -10418.252            0   -9551.2962   -7643.9947    789.73801    9.2433134    9.2433134    9.2433134    48.848233 
   13700    295.88465   -10434.423            0   -9553.3294     -12615.3    787.24448    9.2335749    9.2335749    9.2335749    50.838677 
   13800    313.13082    -10489.29            0   -9556.8397   -2649.3978    784.68098    9.2235416    9.2235416    9.2235416    41.818342 
   13900    307.78355   -10475.355            0   -9558.8277    8961.0646    782.07245    9.2133095    9.2133095    9.2133095    44.541547 
   14000    303.26751   -10463.775            0   -9560.6961    18202.656    779.67198    9.2038735    9.2038735    9.2038735    33.266767 
Loop time of 22.7242 on 16 procs for 1000 steps with 1000 atoms

Performance: 3.802 ns/day, 6.312 hours/ns, 44.006 timesteps/s
94.4% CPU use with 16 MPI tasks x no OpenMP threads

MPI task timing breakdown:
Section |  min time  |  avg time  |  max time  |%varavg| %total
---------------------------------------------------------------
Pair    | 1.9282     | 1.9899     | 2.1038     |   3.4 |  8.76
Neigh   | 0.76437    | 0.78586    | 0.80846    |   1.4 |  3.46
Comm    | 0.70763    | 0.82474    | 0.89869    |   6.2 |  3.63
Output  | 12.424     | 12.851     | 19.028     |  44.5 | 56.55
Modify  | 0.08762    | 6.2639     | 6.6931     |  63.7 | 27.56
Other   |            | 0.009184   |            |       |  0.04

Nlocal:    62.5 ave 68 max 57 min
Histogram: 2 1 1 2 4 0 1 1 1 3
Nghost:    1869.94 ave 1886 max 1855 min
Histogram: 2 1 0 4 2 1 3 1 0 2
Neighs:    0 ave 0 max 0 min
Histogram: 16 0 0 0 0 0 0 0 0 0
FullNghs:  18943.5 ave 20718 max 17206 min
Histogram: 2 1 1 2 4 1 1 0 1 3

Total # of neighbors = 303096
Ave neighs/atom = 303.096
Neighbor list builds = 1000
Dangerous builds not checked
Setting up Verlet run ...
  Unit style    : real
  Current step  : 14000
  Time step     : 1
Per MPI rank memory allocation (min/avg/max) = 4.578 | 4.579 | 4.58 Mbytes
Step Temp E_pair E_mol TotEng Press Volume Lx Ly Lz S/CPU 
   14000    303.26751   -10463.775            0   -9560.6961    18202.656    779.67198    9.2038735    9.2038735    9.2038735            0 
   14100    299.94282   -10457.264            0   -9564.0853     12363.99    778.25086    9.1982781    9.1982781    9.1982781    45.280207 
   14200    318.67896   -10519.131            0   -9570.1594    28756.778    777.62617    9.1958164    9.1958164    9.1958164    43.577131 
   14300    297.80778   -10461.867            0   -9575.0466    1715.9357    778.22299    9.1981683    9.1981683    9.1981683     42.96617 
   14400    310.97335   -10507.345            0   -9581.3191    1690.5666    779.50077    9.2031998    9.2031998    9.2031998    44.464012 
   14500     302.9274   -10488.234            0   -9586.1683    18256.617    780.93728    9.2088497    9.2088497    9.2088497    39.704436 
   14600    295.92471   -10475.284            0   -9594.0706   -4534.5461    782.85479    9.2163807    9.2163807    9.2163807    55.838679 
   14700    305.48711   -10511.955            0   -9602.2667   -902.42623    784.57348    9.2231203    9.2231203    9.2231203     50.11707 
   14800    294.63038   -10486.339            0   -9608.9805   -14884.223    786.00024    9.2287077    9.2287077    9.2287077    36.839122 
   14900    296.57836   -10498.841            0   -9615.6817   -8125.5739    786.70181    9.2314527    9.2314527    9.2314527    46.551048 
   15000    289.73121   -10485.012            0   -9622.2418   -9400.9007    786.98636    9.2325656    9.2325656    9.2325656    46.656711 
Loop time of 22.3905 on 16 procs for 1000 steps with 1000 atoms

Performance: 3.859 ns/day, 6.220 hours/ns, 44.662 timesteps/s
94.4% CPU use with 16 MPI tasks x no OpenMP threads

MPI task timing breakdown:
Section |  min time  |  avg time  |  max time  |%varavg| %total
---------------------------------------------------------------
Pair    | 1.8976     | 1.9864     | 2.1036     |   4.5 |  8.87
Neigh   | 0.7499     | 0.7768     | 0.81038    |   1.7 |  3.47
Comm    | 0.7354     | 0.87165    | 0.98802    |   8.0 |  3.89
Output  | 12.555     | 12.944     | 18.712     |  41.4 | 57.81
Modify  | 0.034047   | 5.8023     | 6.192      |  61.8 | 25.91
Other   |            | 0.009237   |            |       |  0.04

Nlocal:    62.5 ave 67 max 58 min
Histogram: 1 0 1 3 4 3 1 1 1 1
Nghost:    1863.5 ave 1882 max 1843 min
Histogram: 1 2 1 2 1 1 4 1 1 2
Neighs:    0 ave 0 max 0 min
Histogram: 16 0 0 0 0 0 0 0 0 0
FullNghs:  18763.5 ave 19971 max 17341 min
Histogram: 1 0 0 4 3 2 3 0 1 2

Total # of neighbors = 300216
Ave neighs/atom = 300.216
Neighbor list builds = 1000
Dangerous builds not checked
Setting up Verlet run ...
  Unit style    : real
  Current step  : 15000
  Time step     : 1
Per MPI rank memory allocation (min/avg/max) = 4.578 | 4.579 | 4.58 Mbytes
Step Temp E_pair E_mol TotEng Press Volume Lx Ly Lz S/CPU 
   15000    289.73121   -10485.012            0   -9622.2418   -9400.9007    786.98636    9.2325656    9.2325656    9.2325656            0 
   15100    305.42633   -10537.763            0   -9628.2554    3800.5064     786.8924    9.2321981    9.2321981    9.2321981    41.662797 
   15200    291.96885   -10500.662            0   -9631.2284   -20050.743    786.55534    9.2308798    9.2308798    9.2308798    44.555686 
   15300    286.21513   -10484.902            0   -9632.6022   -3751.3496    785.32165    9.2260511    9.2260511    9.2260511    42.348903 
   15400     292.1158   -10501.352            0   -9631.4809   -5257.2198    783.57668    9.2192127    9.2192127    9.2192127    47.108159 
   15500    284.08395   -10475.314            0   -9629.3606    14564.546    781.88647    9.2125792    9.2125792    9.2125792    47.162608 
   15600     294.5773   -10501.655            0   -9624.4544    12090.779    780.85887    9.2085415    9.2085415    9.2085415    38.969903 
   15700    310.89554   -10543.595            0   -9617.8008    15472.985    780.15717    9.2057823    9.2057823    9.2057823    43.203993 
   15800    305.82206   -10514.761            0   -9604.0753    1672.6423    780.08651    9.2055044    9.2055044    9.2055044    47.744355 
   15900    314.89803   -10522.964            0   -9585.2519    7105.3951    780.53758    9.2072783    9.2072783    9.2072783    49.909308 
   16000    310.07247   -10486.371            0   -9563.0282    15586.195    781.46337    9.2109171    9.2109171    9.2109171    45.129192 
Loop time of 22.4437 on 16 procs for 1000 steps with 1000 atoms

Performance: 3.850 ns/day, 6.234 hours/ns, 44.556 timesteps/s
94.4% CPU use with 16 MPI tasks x no OpenMP threads

MPI task timing breakdown:
Section |  min time  |  avg time  |  max time  |%varavg| %total
---------------------------------------------------------------
Pair    | 1.9354     | 2.0076     | 2.0769     |   3.5 |  8.95
Neigh   | 0.75097    | 0.78464    | 0.80626    |   1.7 |  3.50
Comm    | 0.79244    | 0.87693    | 0.97563    |   6.7 |  3.91
Output  | 12.397     | 12.794     | 18.682     |  42.5 | 57.00
Modify  | 0.08202    | 5.9712     | 6.3685     |  62.2 | 26.61
Other   |            | 0.009819   |            |       |  0.04

Nlocal:    62.5 ave 66 max 58 min
Histogram: 1 0 2 3 0 2 3 0 4 1
Nghost:    1874.12 ave 1892 max 1857 min
Histogram: 2 2 2 1 0 1 2 2 3 1
Neighs:    0 ave 0 max 0 min
Histogram: 16 0 0 0 0 0 0 0 0 0
FullNghs:  18908.6 ave 20177 max 17296 min
Histogram: 1 0 1 3 2 2 2 2 1 2

Total # of neighbors = 302538
Ave neighs/atom = 302.538
Neighbor list builds = 1000
Dangerous builds not checked
Setting up Verlet run ...
  Unit style    : real
  Current step  : 16000
  Time step     : 1
Per MPI rank memory allocation (min/avg/max) = 4.578 | 4.579 | 4.58 Mbytes
Step Temp E_pair E_mol TotEng Press Volume Lx Ly Lz S/CPU 
   16000    310.07247   -10486.371            0   -9563.0282    15586.195    781.46337    9.2109171    9.2109171    9.2109171            0 
   16100    311.90673   -10474.969            0   -9546.1637    15636.602    783.51109    9.2189554    9.2189554    9.2189554    41.340275 
   16200    304.96259   -10444.112            0   -9535.9858    2801.1958    786.09711    9.2290868    9.2290868    9.2290868    45.274274 
   16300     295.9328   -10411.035            0   -9529.7977    11596.139    788.58632     9.238818     9.238818     9.238818    50.307231 
   16400    303.95481   -10432.589            0   -9527.4635    -20163.47    791.36776    9.2496674    9.2496674    9.2496674    44.568444 
   16500     306.6993   -10439.315            0   -9526.0165   -6606.5318     793.5306    9.2580863    9.2580863    9.2580863    43.187183 
   16600    298.29809   -10414.132            0   -9525.8508   -20556.142    795.04882    9.2639869    9.2639869    9.2639869    54.147797 
   16700    301.10583   -10422.698            0   -9526.0567   -21398.656    795.74549     9.266692     9.266692     9.266692    54.577249 
   16800    302.15583   -10428.027            0   -9528.2589   -16026.795    795.40427    9.2653673    9.2653673    9.2653673    40.124705 
   16900    305.89879   -10443.023            0   -9532.1085   -11314.538    794.34702    9.2612603    9.2612603    9.2612603    54.494059 
   17000    315.82866   -10478.682            0   -9538.1985   -6842.8851     793.1201    9.2564896    9.2564896    9.2564896    44.260186 
Loop time of 21.4405 on 16 procs for 1000 steps with 1000 atoms

Performance: 4.030 ns/day, 5.956 hours/ns, 46.641 timesteps/s
94.4% CPU use with 16 MPI tasks x no OpenMP threads

MPI task timing breakdown:
Section |  min time  |  avg time  |  max time  |%varavg| %total
---------------------------------------------------------------
Pair    | 1.8057     | 1.9707     | 2.0748     |   4.2 |  9.19
Neigh   | 0.73935    | 0.78271    | 0.81915    |   2.0 |  3.65
Comm    | 0.69012    | 0.82342    | 1.0317     |   8.2 |  3.84
Output  | 11.629     | 12.018     | 17.786     |  43.0 | 56.05
Modify  | 0.067994   | 5.8365     | 6.2252     |  61.7 | 27.22
Other   |            | 0.009236   |            |       |  0.04

Nlocal:    62.5 ave 68 max 54 min
Histogram: 1 0 1 1 2 1 3 4 2 1
Nghost:    1849.88 ave 1876 max 1830 min
Histogram: 3 1 2 1 2 3 1 1 1 1
Neighs:    0 ave 0 max 0 min
Histogram: 16 0 0 0 0 0 0 0 0 0
FullNghs:  18622.6 ave 20369 max 15899 min
Histogram: 1 0 1 1 2 2 3 2 2 2

Total # of neighbors = 297962
Ave neighs/atom = 297.962
Neighbor list builds = 1000
Dangerous builds not checked
Setting up Verlet run ...
  Unit style    : real
  Current step  : 17000
  Time step     : 1
Per MPI rank memory allocation (min/avg/max) = 4.578 | 4.579 | 4.58 Mbytes
Step Temp E_pair E_mol TotEng Press Volume Lx Ly Lz S/CPU 
   17000    315.82866   -10478.682            0   -9538.1985   -6842.8851     793.1201    9.2564896    9.2564896    9.2564896            0 
   17100    302.00399   -10443.355            0   -9544.0384    92.739617    792.14871    9.2527091    9.2527091    9.2527091    40.192119 
   17200    303.60412   -10456.994            0   -9552.9123   -9462.0482     791.4964    9.2501686    9.2501686    9.2501686    49.082567 
   17300    300.18247   -10456.172            0   -9562.2796    10964.849     791.0409    9.2483938    9.2483938    9.2483938     36.77624 
   17400    294.20896   -10447.576            0   -9571.4715   -10773.703    790.91935    9.2479201    9.2479201    9.2479201    49.579485 
   17500    313.26222   -10514.731            0   -9581.8896   -872.74061    790.54213    9.2464496    9.2464496    9.2464496    50.848024 
   17600    292.24636   -10458.221            0   -9587.9616    107.15555    790.22512    9.2452135    9.2452135    9.2452135    38.747088 
   17700    314.17237    -10532.61            0   -9597.0586   -8406.8142    789.72415    9.2432594    9.2432594    9.2432594    55.510702 
   17800     293.9192   -10478.077            0   -9602.8357   -1652.8514    788.59455    9.2388502    9.2388502    9.2388502    52.799957 
   17900    311.92537   -10538.476            0   -9609.6154   -5709.2736    787.20564     9.233423     9.233423     9.233423    42.816915 
   18000    291.71136   -10482.367            0   -9613.7006   -8890.1578    785.22847    9.2256862    9.2256862    9.2256862    54.600127 
Loop time of 21.6715 on 16 procs for 1000 steps with 1000 atoms

Performance: 3.987 ns/day, 6.020 hours/ns, 46.144 timesteps/s
94.4% CPU use with 16 MPI tasks x no OpenMP threads

MPI task timing breakdown:
Section |  min time  |  avg time  |  max time  |%varavg| %total
---------------------------------------------------------------
Pair    | 1.8611     | 1.9693     | 2.046      |   4.7 |  9.09
Neigh   | 0.75302    | 0.78261    | 0.81335    |   2.5 |  3.61
Comm    | 0.77784    | 0.88226    | 1.0207     |   9.3 |  4.07
Output  | 12.079     | 12.45      | 17.945     |  40.2 | 57.45
Modify  | 0.087029   | 5.5785     | 5.9491     |  60.0 | 25.74
Other   |            | 0.009181   |            |       |  0.04

Nlocal:    62.5 ave 68 max 58 min
Histogram: 2 1 1 2 0 5 2 1 0 2
Nghost:    1852.12 ave 1891 max 1835 min
Histogram: 2 4 4 3 0 0 2 0 0 1
Neighs:    0 ave 0 max 0 min
Histogram: 16 0 0 0 0 0 0 0 0 0
FullNghs:  18804.2 ave 20736 max 17224 min
Histogram: 2 1 2 1 3 3 2 0 1 1

Total # of neighbors = 300868
Ave neighs/atom = 300.868
Neighbor list builds = 1000
Dangerous builds not checked
Setting up Verlet run ...
  Unit style    : real
  Current step  : 18000
  Time step     : 1
Per MPI rank memory allocation (min/avg/max) = 4.578 | 4.579 | 4.58 Mbytes
Step Temp E_pair E_mol TotEng Press Volume Lx Ly Lz S/CPU 
   18000    291.71136   -10482.367            0   -9613.7006   -8890.1578    785.22847    9.2256862    9.2256862    9.2256862            0 
   18100     292.4517   -10488.791            0   -9617.9197    985.90291    782.71986    9.2158511    9.2158511    9.2158511    47.564948 
   18200       298.61   -10510.407            0   -9621.1977   -270.81861    780.11741    9.2056259    9.2056259    9.2056259     41.14936 
   18300    300.71255   -10519.424            0    -9623.953    5004.0088    777.91563    9.1969572    9.1969572    9.1969572    53.198223 
   18400     296.4768   -10508.438            0   -9625.5807    19602.192    776.58293    9.1917022    9.1917022    9.1917022    41.252691 
   18500    299.06935   -10519.438            0   -9628.8604    7045.5031    776.39255    9.1909511    9.1909511    9.1909511     43.62897 
   18600    301.78293   -10529.623            0   -9630.9645    13493.948    776.69053    9.1921267    9.1921267    9.1921267    55.714635 
   18700    298.93054     -10521.8            0   -9631.6363    16841.086    777.24344    9.1943074    9.1943074    9.1943074     38.83699 
   18800    300.95101    -10529.32            0   -9633.1394   -8729.5975    778.03701    9.1974355    9.1974355    9.1974355    49.530816 
   18900    295.50631   -10514.801            0   -9634.8337   -1599.8267    778.85745    9.2006673    9.2006673    9.2006673    48.256247 
   19000    298.17228   -10525.538            0   -9637.6319   -11169.926    779.64536    9.2037688    9.2037688    9.2037688    39.355259 
Loop time of 22.1304 on 16 procs for 1000 steps with 1000 atoms

Performance: 3.904 ns/day, 6.147 hours/ns, 45.187 timesteps/s
94.4% CPU use with 16 MPI tasks x no OpenMP threads

MPI task timing breakdown:
Section |  min time  |  avg time  |  max time  |%varavg| %total
---------------------------------------------------------------
Pair    | 1.9369     | 2.0009     | 2.0912     |   3.3 |  9.04
Neigh   | 0.76068    | 0.77984    | 0.80408    |   1.6 |  3.52
Comm    | 0.76566    | 0.87667    | 0.95291    |   6.1 |  3.96
Output  | 12.12      | 12.516     | 18.389     |  42.9 | 56.56
Modify  | 0.07385    | 5.9475     | 6.3434     |  62.2 | 26.87
Other   |            | 0.009529   |            |       |  0.04

Nlocal:    62.5 ave 66 max 57 min
Histogram: 1 0 1 2 2 2 2 1 2 3
Nghost:    1871.25 ave 1893 max 1856 min
Histogram: 4 1 1 1 3 3 1 0 0 2
Neighs:    0 ave 0 max 0 min
Histogram: 16 0 0 0 0 0 0 0 0 0
FullNghs:  18914.4 ave 19995 max 17157 min
Histogram: 1 0 1 2 2 2 1 1 2 4

Total # of neighbors = 302630
Ave neighs/atom = 302.63
Neighbor list builds = 1000
Dangerous builds not checked
Setting up Verlet run ...
  Unit style    : real
  Current step  : 19000
  Time step     : 1
Per MPI rank memory allocation (min/avg/max) = 4.578 | 4.579 | 4.58 Mbytes
Step Temp E_pair E_mol TotEng Press Volume Lx Ly Lz S/CPU 
   19000    298.17228   -10525.538            0   -9637.6319   -11169.926    779.64536    9.2037688    9.2037688    9.2037688            0 
   19100    284.52657    -10485.49            0    -9638.218    749.61604    779.89183    9.2047385    9.2047385    9.2047385    53.674097 
   19200     310.0077    -10562.89            0   -9639.7402   -7048.3812    779.98698    9.2051129    9.2051129    9.2051129    51.993943 
   19300    297.15357   -10523.749            0   -9638.8761   -11458.346    779.87658    9.2046785    9.2046785    9.2046785    39.902952 
   19400    291.45069   -10505.814            0    -9637.924    11109.473    779.69977    9.2039829    9.2039829    9.2039829    46.145451 
   19500    293.14226   -10509.237            0   -9636.3093    5829.0273     779.8687    9.2046475    9.2046475    9.2046475    39.771628 
   19600    303.91753   -10539.101            0   -9634.0864    7204.4321     780.2993    9.2063413    9.2063413    9.2063413     48.58784 
   19700    299.00186   -10520.913            0    -9630.537   -5156.1951    780.89591    9.2086871    9.2086871    9.2086871     48.51312 
   19800    299.53151   -10517.162            0   -9625.2079    4399.4592    781.22625    9.2099854    9.2099854    9.2099854    45.871512 
   19900    288.60623    -10474.71            0   -9615.2902   -481.94143    781.41003    9.2107076    9.2107076    9.2107076    46.729197 
   20000    314.55799   -10535.981            0   -9599.2808    4533.1909    781.41459    9.2107255    9.2107255    9.2107255     53.58687 
Loop time of 21.2795 on 16 procs for 1000 steps with 1000 atoms

Performance: 4.060 ns/day, 5.911 hours/ns, 46.994 timesteps/s
94.4% CPU use with 16 MPI tasks x no OpenMP threads

MPI task timing breakdown:
Section |  min time  |  avg time  |  max time  |%varavg| %total
---------------------------------------------------------------
Pair    | 1.915      | 2.0127     | 2.1113     |   4.0 |  9.46
Neigh   | 0.76072    | 0.78316    | 0.81195    |   1.8 |  3.68
Comm    | 0.75228    | 0.87211    | 0.99091    |   7.5 |  4.10
Output  | 11.799     | 12.16      | 17.516     |  39.7 | 57.14
Modify  | 0.086677   | 5.4422     | 5.804      |  59.3 | 25.57
Other   |            | 0.009269   |            |       |  0.04

Nlocal:    62.5 ave 67 max 57 min
Histogram: 1 0 1 2 1 3 2 2 2 2
Nghost:    1861.5 ave 1872 max 1855 min
Histogram: 3 3 3 0 1 2 0 3 0 1
Neighs:    0 ave 0 max 0 min
Histogram: 16 0 0 0 0 0 0 0 0 0
FullNghs:  18907.1 ave 20307 max 17173 min
Histogram: 1 1 2 1 1 2 1 4 1 2

Total # of neighbors = 302514
Ave neighs/atom = 302.514
Neighbor list builds = 1000
Dangerous builds not checked
Setting up Verlet run ...
  Unit style    : real
  Current step  : 20000
  Time step     : 1
Per MPI rank memory allocation (min/avg/max) = 4.578 | 4.579 | 4.58 Mbytes
Step Temp E_pair E_mol TotEng Press Volume Lx Ly Lz S/CPU 
   20000    314.55799   -10535.981            0   -9599.2808    4533.1909    781.41459    9.2107255    9.2107255    9.2107255            0 
   20100    312.38855   -10506.495            0   -9576.2556     10238.92    781.51712    9.2111283    9.2111283    9.2111283    49.838295 
   20200    291.68499   -10424.378            0   -9555.7895    9532.6745    782.16264    9.2136637    9.2136637    9.2136637    45.805289 
   20300    315.30497   -10483.324            0   -9544.3993    11056.479    783.28248    9.2180587    9.2180587    9.2180587    43.713254 
   20400    307.86189    -10454.21            0   -9537.4497    5159.4845    784.83925    9.2241616    9.2241616    9.2241616    41.165479 
   20500    309.29769   -10456.123            0   -9535.0868    4601.4793    786.62706    9.2311603    9.2311603    9.2311603    45.632557 
   20600    297.56799   -10420.384            0   -9534.2769   -1507.4695    788.34805    9.2378874    9.2378874    9.2378874    48.425907 
   20700     304.7949   -10443.278            0   -9535.6504   -9681.5129    789.72433    9.2432601    9.2432601    9.2432601    45.839661 
   20800    294.31734   -10413.655            0    -9537.228   -5633.2121     790.5388    9.2464366    9.2464366    9.2464366    42.574946 
   20900    301.12082   -10437.371            0   -9540.6848   -8501.5275    790.93424    9.2479781    9.2479781    9.2479781    43.608469 
   21000    301.51438   -10443.207            0   -9545.3491    2623.4297    790.88127    9.2477716    9.2477716    9.2477716    38.252148 
Loop time of 22.6006 on 16 procs for 1000 steps with 1000 atoms

Performance: 3.823 ns/day, 6.278 hours/ns, 44.247 timesteps/s
94.4% CPU use with 16 MPI tasks x no OpenMP threads

MPI task timing breakdown:
Section |  min time  |  avg time  |  max time  |%varavg| %total
---------------------------------------------------------------
Pair    | 1.8775     | 1.9923     | 2.1076     |   4.5 |  8.82
Neigh   | 0.7459     | 0.78112    | 0.81092    |   1.9 |  3.46
Comm    | 0.72016    | 0.86413    | 1.0034     |   8.5 |  3.82
Output  | 12.415     | 12.822     | 18.873     |  43.6 | 56.73
Modify  | 0.078671   | 6.1316     | 6.5445     |  63.1 | 27.13
Other   |            | 0.009205   |            |       |  0.04

Nlocal:    62.5 ave 66 max 59 min
Histogram: 1 2 1 0 3 5 0 2 1 1
Nghost:    1841.31 ave 1860 max 1816 min
Histogram: 1 1 0 2 2 2 3 2 1 2
Neighs:    0 ave 0 max 0 min
Histogram: 16 0 0 0 0 0 0 0 0 0
FullNghs:  18663.6 ave 19840 max 17659 min
Histogram: 2 1 1 3 2 3 0 2 1 1

Total # of neighbors = 298618
Ave neighs/atom = 298.618
Neighbor list builds = 1000
Dangerous builds not checked
Setting up Verlet run ...
  Unit style    : real
  Current step  : 21000
  Time step     : 1
Per MPI rank memory allocation (min/avg/max) = 4.578 | 4.579 | 4.58 Mbytes
Step Temp E_pair E_mol TotEng Press Volume Lx Ly Lz S/CPU 
   21000    301.51438   -10443.207            0   -9545.3491    2623.4297    790.88127    9.2477716    9.2477716    9.2477716            0 
   21100    298.92714   -10441.922            0   -9551.7682   -18633.457    790.52528    9.2463839    9.2463839    9.2463839    48.576981 
   21200    312.13652   -10488.213            0   -9558.7236   -4553.2594    789.08965    9.2407832    9.2407832    9.2407832    30.862069 
   21300    300.27113    -10458.09            0   -9563.9339   -778.87296    787.22498    9.2334986    9.2334986    9.2334986     40.95815 
   21400    301.25856   -10467.945            0   -9570.8484    2361.1259    785.33408    9.2260998    9.2260998    9.2260998    44.449841 
   21500    299.01567   -10468.776            0   -9578.3587    8143.5002    783.58022    9.2192266    9.2192266    9.2192266    41.994618 
   21600     305.0979   -10494.241            0   -9585.7115    1425.5835      782.065    9.2132803    9.2132803    9.2132803    44.808104 
   21700    301.13475   -10490.225            0    -9593.497    7553.4705    780.86223    9.2085547    9.2085547    9.2085547    36.499109 
   21800    306.71094   -10515.569            0   -9602.2357    5884.3762    780.16521     9.205814     9.205814     9.205814    40.979516 
   21900    293.81469   -10485.924            0   -9610.9943    685.18372    780.19741    9.2059406    9.2059406    9.2059406    44.393836 
   22000    296.26536   -10502.107            0   -9619.8798    11154.852    780.60123    9.2075286    9.2075286    9.2075286    41.635812 
Loop time of 24.4375 on 16 procs for 1000 steps with 1000 atoms

Performance: 3.536 ns/day, 6.788 hours/ns, 40.921 timesteps/s
94.3% CPU use with 16 MPI tasks x no OpenMP threads

MPI task timing breakdown:
Section |  min time  |  avg time  |  max time  |%varavg| %total
---------------------------------------------------------------
Pair    | 1.8986     | 2.028      | 2.1287     |   4.2 |  8.30
Neigh   | 0.76048    | 0.79506    | 0.82246    |   2.1 |  3.25
Comm    | 0.73409    | 0.85196    | 1.0165     |   8.1 |  3.49
Output  | 13.741     | 14.181     | 20.69      |  44.6 | 58.03
Modify  | 0.063782   | 6.5726     | 7.0145     |  65.6 | 26.90
Other   |            | 0.009274   |            |       |  0.04

Nlocal:    62.5 ave 71 max 58 min
Histogram: 3 1 1 6 1 3 0 0 0 1
Nghost:    1864.5 ave 1888 max 1843 min
Histogram: 3 0 1 0 4 2 3 1 1 1
Neighs:    0 ave 0 max 0 min
Histogram: 16 0 0 0 0 0 0 0 0 0
FullNghs:  18923.2 ave 21523 max 17299 min
Histogram: 2 2 1 5 1 3 1 0 0 1

Total # of neighbors = 302772
Ave neighs/atom = 302.772
Neighbor list builds = 1000
Dangerous builds not checked
Setting up Verlet run ...
  Unit style    : real
  Current step  : 22000
  Time step     : 1
Per MPI rank memory allocation (min/avg/max) = 4.578 | 4.579 | 4.58 Mbytes
Step Temp E_pair E_mol TotEng Press Volume Lx Ly Lz S/CPU 
   22000    296.26536   -10502.107            0   -9619.8798    11154.852    780.60123    9.2075286    9.2075286    9.2075286            0 
   22100    298.12915   -10516.231            0    -9628.453    5103.8605    781.73954     9.212002     9.212002     9.212002    46.635725 
   22200    298.26487   -10522.626            0   -9634.4437    7199.2071    783.18838    9.2176896    9.2176896    9.2176896    49.049499 
   22300    303.64605   -10544.138            0   -9639.9319   -5691.4773     784.6351    9.2233618    9.2233618    9.2233618    42.950557 
   22400    286.21935   -10495.142            0   -9642.8293    3213.5918    786.21434    9.2295456    9.2295456    9.2295456    50.844125 
   22500    291.64415   -10514.862            0   -9646.3951   -297.50727    787.97965    9.2364482    9.2364482    9.2364482    47.951547 
   22600    293.88557   -10523.564            0   -9648.4231   -22057.933    789.52349    9.2424764    9.2424764    9.2424764    38.968494 
   22700    295.35781   -10527.975            0   -9648.4498    -14685.72    790.23596    9.2452558    9.2452558    9.2452558    38.072774 
   22800    285.35372   -10496.289            0   -9646.5547   -12805.381    790.37826    9.2458106    9.2458106    9.2458106    47.961524 
   22900    300.39297    -10539.97            0   -9645.4514   -10994.179    789.71811    9.2432358    9.2432358    9.2432358    34.778221 
   23000    313.67365   -10577.093            0   -9643.0263   -1374.1773    788.10888    9.2369531    9.2369531    9.2369531    47.088986 
Loop time of 22.8403 on 16 procs for 1000 steps with 1000 atoms

Performance: 3.783 ns/day, 6.345 hours/ns, 43.782 timesteps/s
94.4% CPU use with 16 MPI tasks x no OpenMP threads

MPI task timing breakdown:
Section |  min time  |  avg time  |  max time  |%varavg| %total
---------------------------------------------------------------
Pair    | 1.916      | 2.0004     | 2.122      |   4.0 |  8.76
Neigh   | 0.75428    | 0.79268    | 0.832      |   2.2 |  3.47
Comm    | 0.73438    | 0.87875    | 0.97299    |   7.9 |  3.85
Output  | 12.912     | 13.302     | 19.053     |  40.7 | 58.24
Modify  | 0.11841    | 5.8567     | 6.2511     |  61.2 | 25.64
Other   |            | 0.009246   |            |       |  0.04

Nlocal:    62.5 ave 66 max 57 min
Histogram: 1 1 1 1 1 2 2 2 3 2
Nghost:    1851.19 ave 1876 max 1833 min
Histogram: 2 3 2 1 1 1 4 0 0 2
Neighs:    0 ave 0 max 0 min
Histogram: 16 0 0 0 0 0 0 0 0 0
FullNghs:  18734.8 ave 19837 max 17110 min
Histogram: 2 1 1 0 1 2 2 2 3 2

Total # of neighbors = 299756
Ave neighs/atom = 299.756
Neighbor list builds = 1000
Dangerous builds not checked
Setting up Verlet run ...
  Unit style    : real
  Current step  : 23000
  Time step     : 1
Per MPI rank memory allocation (min/avg/max) = 4.578 | 4.579 | 4.58 Mbytes
Step Temp E_pair E_mol TotEng Press Volume Lx Ly Lz S/CPU 
   23000    313.67365   -10577.093            0   -9643.0263   -1374.1773    788.10888    9.2369531    9.2369531    9.2369531            0 
   23100    302.31557   -10539.614            0   -9639.3699   -413.20261    786.40027    9.2302731    9.2302731    9.2302731    43.112864 
   23200    303.58143   -10539.782            0   -9635.7686     20432.15    785.05471    9.2250057    9.2250057    9.2250057    38.621328 
   23300    284.65694     -10479.7            0   -9632.0405    7731.4916    784.95861    9.2246292    9.2246292    9.2246292    47.455086 
   23400    300.33803   -10524.995            0   -9630.6401    17896.131    785.31505    9.2260253    9.2260253    9.2260253     47.65556 
   23500    298.57724   -10517.272            0   -9628.1596    2339.7642    785.96929    9.2285866    9.2285866    9.2285866    39.184824 
   23600     297.3888   -10510.967            0   -9625.3937   -3854.9846     786.9388    9.2323796    9.2323796    9.2323796    51.155889 
   23700    292.70699   -10493.769            0    -9622.138    1826.8677    788.10933    9.2369549    9.2369549    9.2369549    38.488858 
   23800    282.63666   -10460.217            0   -9618.5729    1897.9558    789.49815    9.2423776    9.2423776    9.2423776     45.68005 
   23900    295.67521   -10496.144            0   -9615.6735    24444.319    790.79633    9.2474406    9.2474406    9.2474406    50.852291 
   24000    304.05775   -10517.497            0   -9612.0653   -5812.7737    792.23267     9.253036     9.253036     9.253036    43.621376 
Loop time of 22.6675 on 16 procs for 1000 steps with 1000 atoms

Performance: 3.812 ns/day, 6.297 hours/ns, 44.116 timesteps/s
94.4% CPU use with 16 MPI tasks x no OpenMP threads

MPI task timing breakdown:
Section |  min time  |  avg time  |  max time  |%varavg| %total
---------------------------------------------------------------
Pair    | 1.8887     | 1.9863     | 2.0465     |   3.0 |  8.76
Neigh   | 0.75552    | 0.78461    | 0.81581    |   1.9 |  3.46
Comm    | 0.76779    | 0.83556    | 0.96242    |   6.1 |  3.69
Output  | 12.577     | 12.981     | 18.977     |  43.0 | 57.27
Modify  | 0.074512   | 6.0711     | 6.4754     |  62.8 | 26.78
Other   |            | 0.009249   |            |       |  0.04

Nlocal:    62.5 ave 67 max 57 min
Histogram: 1 0 0 1 4 4 0 1 4 1
Nghost:    1849.25 ave 1870 max 1824 min
Histogram: 1 1 0 2 3 1 3 4 0 1
Neighs:    0 ave 0 max 0 min
Histogram: 16 0 0 0 0 0 0 0 0 0
FullNghs:  18617.9 ave 20191 max 16991 min
Histogram: 1 0 1 4 4 0 1 4 0 1

Total # of neighbors = 297886
Ave neighs/atom = 297.886
Neighbor list builds = 1000
Dangerous builds not checked
Setting up Verlet run ...
  Unit style    : real
  Current step  : 24000
  Time step     : 1
Per MPI rank memory allocation (min/avg/max) = 4.578 | 4.579 | 4.58 Mbytes
Step Temp E_pair E_mol TotEng Press Volume Lx Ly Lz S/CPU 
   24000    304.05775   -10517.497            0   -9612.0653   -5812.7737    792.23267     9.253036     9.253036     9.253036            0 
   24100    298.35245   -10494.632            0   -9606.1896    9333.7629    793.30185    9.2571966    9.2571966    9.2571966    48.760346 
   24200    297.91926   -10488.506            0   -9601.3531    3599.5271      794.433    9.2615944    9.2615944    9.2615944    49.249769 
   24300    293.52256   -10471.409            0   -9597.3487   -6649.1278    795.25337    9.2647813    9.2647813    9.2647813    40.173315 
   24400    288.83724   -10452.352            0   -9592.2436   -22178.252    795.68461    9.2664557    9.2664557    9.2664557        51.99 
   24500    300.79484   -10485.238            0   -9589.5227    -6252.665    795.39874    9.2653458    9.2653458    9.2653458    43.849457 
   24600    302.32336   -10485.502            0   -9585.2345    -15626.37    794.82413    9.2631141    9.2631141    9.2631141    41.228697 
   24700    298.61227   -10469.753            0   -9580.5363   -5146.5687    794.20637    9.2607136    9.2607136    9.2607136     46.34381 
   24800    298.90376   -10468.009            0   -9577.9244     4565.551    793.62258     9.258444     9.258444     9.258444    48.629982 
   24900    310.38075   -10501.174            0   -9576.9127   -17806.766     793.0282    9.2561321    9.2561321    9.2561321    42.408273 
   25000    301.73066   -10473.991            0   -9575.4891    3999.2196    792.07321    9.2524151    9.2524151    9.2524151    48.489016 
Loop time of 21.8345 on 16 procs for 1000 steps with 1000 atoms

Performance: 3.957 ns/day, 6.065 hours/ns, 45.799 timesteps/s
94.4% CPU use with 16 MPI tasks x no OpenMP threads

MPI task timing breakdown:
Section |  min time  |  avg time  |  max time  |%varavg| %total
---------------------------------------------------------------
Pair    | 1.8104     | 1.9375     | 2.0869     |   4.9 |  8.87
Neigh   | 0.74174    | 0.77733    | 0.82117    |   2.4 |  3.56
Comm    | 0.70053    | 0.86802    | 1.0315     |   9.4 |  3.98
Output  | 12.12      | 12.502     | 18.158     |  41.3 | 57.26
Modify  | 0.08622    | 5.7408     | 6.123      |  60.9 | 26.29
Other   |            | 0.009178   |            |       |  0.04

Nlocal:    62.5 ave 67 max 58 min
Histogram: 1 2 0 3 1 3 3 1 1 1
Nghost:    1839.31 ave 1860 max 1822 min
Histogram: 1 2 3 2 1 1 2 1 2 1
Neighs:    0 ave 0 max 0 min
Histogram: 16 0 0 0 0 0 0 0 0 0
FullNghs:  18629.5 ave 19892 max 17166 min
Histogram: 1 1 1 3 0 3 2 3 0 2

Total # of neighbors = 298072
Ave neighs/atom = 298.072
Neighbor list builds = 1000
Dangerous builds not checked
Setting up Verlet run ...
  Unit style    : real
  Current step  : 25000
  Time step     : 1
Per MPI rank memory allocation (min/avg/max) = 4.578 | 4.579 | 4.58 Mbytes
Step Temp E_pair E_mol TotEng Press Volume Lx Ly Lz S/CPU 
   25000    301.73066   -10473.991            0   -9575.4891    3999.2196    792.07321    9.2524151    9.2524151    9.2524151            0 
   25100    305.24177   -10486.122            0   -9577.1642    1347.3535    790.86314     9.247701     9.247701     9.247701     48.74059 
   25200    302.64823   -10477.666            0   -9576.4311   -6742.7585    789.75654    9.2433857    9.2433857    9.2433857    42.701425 
   25300    305.50756   -10487.227            0   -9577.4778   -7925.5241    788.54302    9.2386489    9.2386489    9.2386489    48.499003 
   25400    295.27269   -10457.487            0   -9578.2158   -13764.888    787.23488    9.2335373    9.2335373    9.2335373    42.808225 
   25500    308.76902   -10500.146            0   -9580.6845    1187.9967    785.98599     9.228652     9.228652     9.228652    42.407305 
   25600     297.5839   -10466.834            0   -9580.6803    3016.0748    785.41486    9.2264161    9.2264161    9.2264161    45.089581 
   25700    309.19793   -10503.132            0   -9582.3931    9542.5696    785.72356    9.2276247    9.2276247    9.2276247    29.019316 
   25800    307.56255   -10500.995            0   -9585.1265   -535.42674    786.66461    9.2313072    9.2313072    9.2313072    49.047707 
   25900    298.22377   -10476.117            0   -9588.0573     3524.286    787.77205     9.235637     9.235637     9.235637    48.670594 
   26000    294.09805   -10467.133            0   -9591.3592   -10665.006    788.83164     9.239776     9.239776     9.239776    32.853708 
Loop time of 23.9506 on 16 procs for 1000 steps with 1000 atoms

Performance: 3.607 ns/day, 6.653 hours/ns, 41.753 timesteps/s
94.3% CPU use with 16 MPI tasks x no OpenMP threads

MPI task timing breakdown:
Section |  min time  |  avg time  |  max time  |%varavg| %total
---------------------------------------------------------------
Pair    | 1.8663     | 1.9871     | 2.0988     |   4.7 |  8.30
Neigh   | 0.75123    | 0.78466    | 0.84961    |   2.7 |  3.28
Comm    | 0.71885    | 0.90055    | 1.0377     |   9.2 |  3.76
Output  | 13.068     | 13.517     | 20.182     |  46.8 | 56.44
Modify  | 0.094985   | 6.7523     | 7.2006     |  66.1 | 28.19
Other   |            | 0.009235   |            |       |  0.04

Nlocal:    62.5 ave 69 max 57 min
Histogram: 1 2 2 2 1 3 2 1 1 1
Nghost:    1854.69 ave 1871 max 1840 min
Histogram: 3 1 0 1 3 2 3 0 1 2
Neighs:    0 ave 0 max 0 min
Histogram: 16 0 0 0 0 0 0 0 0 0
FullNghs:  18704.1 ave 20624 max 17137 min
Histogram: 1 2 2 2 1 3 2 1 1 1

Total # of neighbors = 299266
Ave neighs/atom = 299.266
Neighbor list builds = 1000
Dangerous builds not checked
Setting up Verlet run ...
  Unit style    : real
  Current step  : 26000
  Time step     : 1
Per MPI rank memory allocation (min/avg/max) = 4.578 | 4.579 | 4.58 Mbytes
Step Temp E_pair E_mol TotEng Press Volume Lx Ly Lz S/CPU 
   26000    294.09805   -10467.133            0   -9591.3592   -10665.006    788.83164     9.239776     9.239776     9.239776            0 
   26100    308.47401   -10515.453            0   -9596.8705   -3645.8807    789.67531    9.2430688    9.2430688    9.2430688    50.930776 
   26200    303.01368   -10501.077            0   -9598.7542   -9857.0673    790.20633    9.2451402    9.2451402    9.2451402    49.022634 
   26300    305.13653   -10510.908            0   -9602.2632   -15500.614    790.39608    9.2458801    9.2458801    9.2458801    40.605857 
   26400    298.54781   -10492.262            0   -9603.2378   -7549.7597    790.12938    9.2448401    9.2448401    9.2448401    51.244394 
   26500    293.99186   -10480.448            0   -9604.9902   -11134.936    789.56799    9.2426501    9.2426501    9.2426501    46.398114 
   26600    291.51491   -10475.457            0   -9607.3756   -3550.8452    788.46197    9.2383324    9.2383324    9.2383324    42.434015 
   26700     298.3505   -10496.719            0    -9608.282   -4561.6358    786.86108    9.2320756    9.2320756    9.2320756    46.806482 
   26800    304.55976   -10516.271            0   -9609.3444    940.06248    784.80367    9.2240222    9.2240222    9.2240222    41.723255 
   26900    299.80625   -10502.757            0    -9609.985    3821.0062    782.39274    9.2145671    9.2145671    9.2145671    44.542898 
   27000    305.22617   -10518.485            0   -9609.5736    7451.8791    780.00102    9.2051681    9.2051681    9.2051681    54.890078 
Loop time of 21.5294 on 16 procs for 1000 steps with 1000 atoms

Performance: 4.013 ns/day, 5.980 hours/ns, 46.448 timesteps/s
94.4% CPU use with 16 MPI tasks x no OpenMP threads

MPI task timing breakdown:
Section |  min time  |  avg time  |  max time  |%varavg| %total
---------------------------------------------------------------
Pair    | 1.8994     | 1.9973     | 2.0934     |   3.8 |  9.28
Neigh   | 0.75987    | 0.78571    | 0.81734    |   1.5 |  3.65
Comm    | 0.75133    | 0.87712    | 0.99807    |   7.1 |  4.07
Output  | 12.289     | 12.635     | 17.77      |  37.3 | 58.69
Modify  | 0.090071   | 5.2246     | 5.5734     |  58.0 | 24.27
Other   |            | 0.009446   |            |       |  0.04

Nlocal:    62.5 ave 68 max 59 min
Histogram: 3 2 0 2 3 3 2 0 0 1
Nghost:    1858.19 ave 1872 max 1843 min
Histogram: 2 0 2 2 0 4 0 4 0 2
Neighs:    0 ave 0 max 0 min
Histogram: 16 0 0 0 0 0 0 0 0 0
FullNghs:  18900.2 ave 20738 max 17606 min
Histogram: 3 2 0 2 2 3 2 1 0 1

Total # of neighbors = 302404
Ave neighs/atom = 302.404
Neighbor list builds = 1000
Dangerous builds not checked
Setting up Verlet run ...
  Unit style    : real
  Current step  : 27000
  Time step     : 1
Per MPI rank memory allocation (min/avg/max) = 4.578 | 4.579 | 4.58 Mbytes
Step Temp E_pair E_mol TotEng Press Volume Lx Ly Lz S/CPU 
   27000    305.22617   -10518.485            0   -9609.5736    7451.8791    780.00102    9.2051681    9.2051681    9.2051681            0 
   27100    309.01372    -10529.49            0      -9609.3    3422.8109       777.98    9.1972109    9.1972109    9.1972109    43.180066 
   27200    294.69379   -10487.618            0   -9610.0705    3345.1594    776.24756    9.1903789    9.1903789    9.1903789    50.727178 
   27300    297.46609   -10495.429            0   -9609.6258    6009.7732    774.53939    9.1836326    9.1836326    9.1836326     52.88753 
   27400    300.68804    -10502.55            0   -9607.1524    22373.793    773.50584    9.1795459    9.1795459    9.1795459    49.619695 
   27500    296.07426   -10488.194            0    -9606.535    14556.111    773.71971    9.1803919    9.1803919    9.1803919    50.356695 
   27600    297.11239   -10490.681            0   -9605.9314    28609.858    775.44451    9.1872086    9.1872086    9.1872086    49.016907 
   27700     305.9825   -10516.025            0   -9604.8611    7275.4664    778.57621    9.1995597    9.1995597    9.1995597    42.719366 
   27800    301.50339   -10499.645            0   -9601.8192    583.88217    782.32613    9.2143056    9.2143056    9.2143056    52.368912 
   27900    293.91491   -10472.421            0   -9597.1927   -18425.578    786.07789    9.2290117    9.2290117    9.2290117    43.880838 
   28000    306.78914   -10506.134            0   -9592.5683   -12920.028    788.75528    9.2394778    9.2394778    9.2394778    39.187114 
Loop time of 21.3005 on 16 procs for 1000 steps with 1000 atoms

[...]
 1162700    314.30253    -11264.84            0   -10328.901    1540.7299    791.20948    9.2490507    9.2490507    9.2490507    27.655089 
 1162800    303.11799   -11232.042            0   -10329.408     9000.117    788.73857    9.2394126    9.2394126    9.2394126    28.562361 
 1162900    317.35745   -11277.406            0    -10332.37    17832.249    787.03175    9.2327431    9.2327431    9.2327431    28.695336 
 1163000    299.13901   -11225.269            0   -10334.484    13260.997    786.40545    9.2302934    9.2302934    9.2302934    23.710253 
 1163100    298.02679   -11227.204            0   -10339.731    16388.217    786.98765    9.2325706    9.2325706    9.2325706    31.019748 
 1163200    307.78488   -11262.696            0   -10346.165    1187.1102    788.59945    9.2388693    9.2388693    9.2388693    28.091502 
 1163300    297.55273   -11238.063            0   -10352.002   -532.69126    790.67007    9.2469484    9.2469484    9.2469484    29.486724 
 1163400    298.27421   -11247.565            0   -10359.356   -3221.1068    792.64057    9.2546237    9.2546237    9.2546237    30.441414 
 1163500    292.04584   -11235.367            0   -10365.705    2600.0437    794.17807    9.2606037    9.2606037    9.2606037    26.288573 
 1163600    292.76014   -11244.257            0   -10372.468   -9724.8973    795.02104     9.263879     9.263879     9.263879    29.803645 
 1163700    299.72365    -11272.37            0   -10379.845    -17134.58    794.91958    9.2634849    9.2634849    9.2634849    25.089629 
 1163800    297.69356   -11272.631            0   -10386.151   -19349.936    793.81618    9.2591968    9.2591968    9.2591968    25.578151 
 1163900    298.73784   -11281.974            0   -10392.384   -323.10669    791.93047    9.2518592    9.2518592    9.2518592    27.767832 
 1164000    299.47491   -11289.696            0   -10397.911   -6047.5499    789.76172     9.243406     9.243406     9.243406    28.385184 
 1164100    296.34494   -11284.424            0    -10401.96     10441.87    787.70767    9.2353854    9.2353854    9.2353854    28.530234 
 1164200     296.8673   -11290.033            0   -10406.013    15628.886     786.2915    9.2298475    9.2298475    9.2298475    25.965741 
 1164300    298.71143   -11298.695            0   -10409.183    21412.035    785.88484    9.2282561    9.2282561    9.2282561    31.775845 
 1164400    295.19813    -11290.57            0    -10411.52    12552.142    786.41866    9.2303451    9.2303451    9.2303451    25.838234 
 1164500    303.25192   -11315.144            0   -10412.111    9670.3985    787.69386    9.2353315    9.2353315    9.2353315     26.99447 
 1164600    297.72169   -11297.535            0    -10410.97     804.3562    789.49701    9.2423731    9.2423731    9.2423731    29.237092 
 1164700    294.46826   -11284.665            0   -10407.788    -5374.374    791.30352    9.2494171    9.2494171    9.2494171    25.200674 
 1164800    299.19249   -11291.925            0   -10400.981   -6459.6489    792.65447    9.2546778    9.2546778    9.2546778      27.6346 
 1164900     289.7101   -11248.365            0   -10385.658   -2093.2451     793.5813    9.2582835    9.2582835    9.2582835    27.975935 
 1165000    297.38483   -11254.012            0   -10368.451   -9939.9231    793.94794    9.2597091    9.2597091    9.2597091    24.091219 
 1165100    308.79211    -11271.33            0     -10351.8   -11319.596     793.5884    9.2583111    9.2583111    9.2583111    29.871694 
 1165200    308.14862   -11255.543            0   -10337.929   -5802.6114    792.63876    9.2546167    9.2546167    9.2546167    28.248737 
 1165300    310.24861   -11252.206            0   -10328.339    6527.5847    791.36634    9.2496619    9.2496619    9.2496619    30.039418 
 1165400    313.91098   -11256.779            0   -10322.006   -2214.6352    790.28384    9.2454425    9.2454425    9.2454425    25.960405 
 1165500    308.73349   -11236.667            0   -10317.311   -284.39323    789.60873     9.242809     9.242809     9.242809    23.643006 
 1165600    306.45637   -11227.793            0   -10315.218    12185.525    789.50906    9.2424201    9.2424201    9.2424201    29.254687 
 1165700    306.71446   -11229.626            0   -10316.283     6449.089    790.18563    9.2450595    9.2450595    9.2450595    27.443128 
 1165800     306.7335   -11230.841            0   -10317.441    5299.1032    791.30273    9.2494141    9.2494141    9.2494141    29.925367 
 1165900    313.70786   -11255.525            0   -10321.356   -9068.5404    792.61982     9.254543     9.254543     9.254543    27.960087 
 1166000    295.06162   -11204.369            0   -10325.726   -8883.7962    793.51271    9.2580167    9.2580167    9.2580167    25.814388 
 1166100    302.49436   -11234.322            0   -10333.545   -6584.7167    793.91832    9.2595939    9.2595939    9.2595939    33.797679 
 1166200    312.49875   -11273.813            0   -10343.245   -5588.6654    793.89199    9.2594916    9.2594916    9.2594916     29.93694 
 1166300    307.50221   -11269.015            0   -10353.326   -2975.5773    793.33087    9.2573095    9.2573095    9.2573095    29.455763 
 1166400    302.89973   -11264.425            0   -10362.441    383.06399    792.35581    9.2535153    9.2535153    9.2535153    24.929154 
 1166500     303.0407   -11275.403            0   -10372.999    352.03005    791.13079    9.2487441    9.2487441    9.2487441    25.233671 
 1166600    294.99342   -11259.762            0   -10381.321    3256.8714    789.72396    9.2432586    9.2432586    9.2432586    29.538889 
 1166700    298.29406   -11276.554            0   -10388.285     -3345.96    788.50501    9.2385005    9.2385005    9.2385005    26.235022 
 1166800    306.62761   -11306.962            0   -10393.877    10018.063    787.70041    9.2353571    9.2353571    9.2353571    26.779897 
 1166900    300.34456   -11292.397            0   -10398.022    9498.9674    787.59132    9.2349307    9.2349307    9.2349307    30.218966 
 1167000    301.26612   -11297.158            0   -10400.039    4770.2748    788.25136    9.2375097    9.2375097    9.2375097    28.508128 
 1167100    298.87273   -11291.111            0   -10401.119   -1158.1371    789.37168     9.241884     9.241884     9.241884    29.184696 
 1167200    281.02355   -11236.452            0   -10399.612   -1980.8776    790.82862    9.2475664    9.2475664    9.2475664    27.089853 
 1167300     293.4315   -11272.608            0   -10398.819   -5098.0516    792.31451    9.2533546    9.2533546    9.2533546    27.686183 
 1167400    297.52999   -11283.479            0   -10397.485   -8832.5948    793.40346    9.2575919    9.2575919    9.2575919    30.512019 
 1167500    296.71825   -11276.913            0   -10393.336   -10152.241    793.78701    9.2590834    9.2590834    9.2590834    24.319681 
 1167600    296.98964   -11272.046            0   -10387.662   -11489.897    793.35394    9.2573993    9.2573993    9.2573993    27.313537 
 1167700    294.42893   -11258.897            0   -10382.138    4124.7808    792.31655    9.2533625    9.2533625    9.2533625    27.162898 
 1167800    292.31254   -11246.612            0   -10376.155   -1231.0456    791.04743    9.2484192    9.2484192    9.2484192    28.136189 
 1167900    299.04996   -11260.971            0   -10370.451   -168.69939    789.79122     9.243521     9.243521     9.243521    32.371762 
 1168000    296.00649   -11245.447            0   -10363.991    10331.068    788.85089    9.2398511    9.2398511    9.2398511     22.69212 
 1168100    300.52967   -11253.612            0   -10358.686    7330.4991    788.47531    9.2383845    9.2383845    9.2383845    30.020874 
 1168200    309.78592    -11277.83            0    -10355.34    7754.7106    788.67955    9.2391821    9.2391821    9.2391821    28.304671 
 1168300    301.07049   -11246.447            0    -10349.91    10768.184    789.41758    9.2420631    9.2420631    9.2420631    27.554545 
 1168400    305.54244     -11258.2            0   -10348.347    5295.5484    790.66749    9.2469383    9.2469383    9.2469383    28.880354 
 1168500    304.90232   -11253.913            0   -10345.966    -5029.147    792.12502    9.2526168    9.2526168    9.2526168    28.097399 
 1168600    293.62489   -11220.125            0   -10345.761    -7541.077    793.42996    9.2576949    9.2576949    9.2576949    27.837727 
 1168700    312.16858   -11276.725            0   -10347.141   -19833.892    794.43972    9.2616205    9.2616205    9.2616205    28.142893 
 1168800    305.18886   -11256.381            0    -10347.58   -7888.6807    794.75082    9.2628293    9.2628293    9.2628293    30.892824 
 1168900     301.6554   -11246.793            0   -10348.514   -20404.326     794.2068    9.2607153    9.2607153    9.2607153    26.508807 
 1169000    305.16983   -11258.561            0   -10349.817   -11027.299    792.72439    9.2549499    9.2549499    9.2549499    30.073488 
 1169100    309.13178   -11271.145            0   -10350.603   -2260.9172    790.61082    9.2467174    9.2467174    9.2467174    29.871016 
 1169200    309.30336   -11273.278            0   -10352.225     5606.564    788.31204    9.2377468    9.2377468    9.2377468    28.079092 
 1169300    313.56282   -11288.881            0   -10355.144     14420.43    786.36837    9.2301483    9.2301483    9.2301483    28.712884 
 1169400    299.06634   -11246.747            0   -10356.178    20514.066    785.31511    9.2260255    9.2260255    9.2260255    32.254279 
 1169500    308.76799   -11280.993            0   -10361.534    12083.713    785.64626    9.2273221    9.2273221    9.2273221     26.41572 
 1169600    300.46865   -11259.999            0   -10365.255    14187.964    787.25483    9.2336153    9.2336153    9.2336153    30.851478 
 1169700    300.16464   -11262.738            0   -10368.899    2007.7504     789.6773    9.2430766    9.2430766    9.2430766     26.77218 
 1169800    306.58522   -11287.096            0   -10374.138   -4515.1508     792.5951    9.2544467    9.2544467    9.2544467    28.962569 
 1169900    290.37237   -11242.927            0   -10378.248   -20103.376    795.29458    9.2649414    9.2649414    9.2649414    28.752048 
 1170000     287.8658    -11239.28            0   -10382.065   -28926.974    796.92154    9.2712549    9.2712549    9.2712549    27.777898 
 1170100    300.71039   -11281.513            0   -10386.049   -13950.157    796.68868    9.2703518    9.2703518    9.2703518    32.563001 
 1170200    295.74397   -11271.058            0   -10390.383    -20005.09    795.02734    9.2639035    9.2639035    9.2639035    26.473947 
 1170300    300.45863   -11287.709            0   -10392.994    2709.8085    792.21393     9.252963     9.252963     9.252963    31.860319 
 1170400    293.60787   -11270.621            0   -10396.307   -6610.3999    788.87667    9.2399518    9.2399518    9.2399518    27.972328 
 1170500    292.96567   -11268.573            0   -10396.171    14467.126    785.69517    9.2275136    9.2275136    9.2275136    32.377138 
 1170600    299.05922   -11286.938            0   -10396.391    28069.921    783.64607    9.2194848    9.2194848    9.2194848    24.605054 
 1170700     298.3953   -11284.383            0   -10395.813    29391.097    783.22001    9.2178137    9.2178137    9.2178137    27.856379 
 1170800     288.9658   -11253.991            0     -10393.5    15904.811    784.53719    9.2229781    9.2229781    9.2229781    33.011121 
 1170900    301.72632   -11289.208            0   -10390.719    9930.4032    787.29733    9.2337815    9.2337815    9.2337815    24.980494 
 1171000    290.98079   -11251.584            0   -10385.093   -5665.2171    790.77516     9.247358     9.247358     9.247358    29.192072 
 1171100    299.08476   -11267.544            0   -10376.921   -13987.302    794.16051    9.2605354    9.2605354    9.2605354    28.498898 
 1171200     296.0033   -11247.664            0   -10366.216   -25547.569    796.71727    9.2704627    9.2704627    9.2704627    26.741921 
 1171300    302.09117    -11255.39            0   -10355.814   -16471.496    797.79919    9.2746571    9.2746571    9.2746571    28.630656 
 1171400    305.10903   -11252.289            0   -10343.726    -17851.34    797.24283    9.2725007    9.2725007    9.2725007     26.59155 
 1171500    292.21939   -11204.296            0   -10334.117   -16716.038    795.26734    9.2648356    9.2648356    9.2648356    30.928196 
 1171600     299.6578    -11218.77            0   -10326.441    1627.5929    792.28923    9.2532562    9.2532562    9.2532562    27.573623 
 1171700    305.25064   -11229.092            0   -10320.108    10264.814    789.04724    9.2406177    9.2406177    9.2406177    26.937416 
 1171800    304.24016   -11221.892            0   -10315.916    8883.8312    786.41649    9.2303366    9.2303366    9.2303366    27.962235 
 1171900    310.20284   -11237.763            0   -10314.032    23832.983    784.79219    9.2239773    9.2239773    9.2239773    24.635777 
 1172000    307.63231   -11230.807            0   -10314.731    18903.548    784.65328     9.223433     9.223433     9.223433    27.490074 
 1172100    310.91821   -11244.516            0   -10318.655    12654.097    786.09983    9.2290975    9.2290975    9.2290975     27.42368 
 1172200     315.5182   -11264.297            0   -10324.737     5055.963    788.65752    9.2390961    9.2390961    9.2390961    30.440512 
 1172300    313.95152   -11267.672            0   -10332.778    145.50132    791.83023    9.2514689    9.2514689    9.2514689    29.823278 
 1172400    308.20925   -11260.276            0   -10342.482   -9320.9251    794.97225    9.2636895    9.2636895    9.2636895    25.409502 
 1172500    293.95181    -11227.12            0   -10351.782   -28664.675    797.38351     9.273046     9.273046     9.273046    30.546436 
 1172600    299.25124   -11254.594            0   -10363.474    -24174.97    798.25758    9.2764331    9.2764331    9.2764331    25.442573 
 1172700    296.88762   -11256.141            0    -10372.06   -20075.281    797.44085    9.2732683    9.2732683    9.2732683    27.970081 
 1172800    293.34287   -11253.346            0   -10379.821   -12178.059    795.01704    9.2638635    9.2638635    9.2638635    27.743504 
 1172900    294.43131   -11261.281            0   -10384.515   -4430.3086    791.51141     9.250227     9.250227     9.250227    24.793773 
 1173000    298.10035    -11276.31            0   -10388.618    4524.5389    787.53208    9.2346991    9.2346991    9.2346991    27.139253 
 1173100    299.01644   -11279.272            0   -10388.852    26819.261    784.10529    9.2212853    9.2212853    9.2212853     25.93338 
 1173200    299.42846   -11280.531            0   -10388.884    25176.205    782.26287    9.2140572    9.2140572    9.2140572    27.073174 
 1173300    296.65327   -11272.642            0   -10389.259    23976.822    782.43746    9.2147427    9.2147427    9.2147427    28.266635 
 1173400    299.46204   -11282.331            0   -10390.584    18917.815    784.49891    9.2228281    9.2228281    9.2228281    28.353558 
 1173500    287.83173   -11247.527            0   -10390.414    7385.8907    787.92961    9.2362527    9.2362527    9.2362527    24.198876 
 1173600    304.99605   -11298.035            0   -10389.809   -2835.4945    791.89865    9.2517354    9.2517354    9.2517354    21.712665 
 1173700    295.92392   -11267.982            0   -10386.771   -10043.523    795.69782    9.2665069    9.2665069    9.2665069    26.732712 
 1173800    304.41092   -11291.018            0   -10384.534   -27889.818    798.42735    9.2770907    9.2770907    9.2770907    23.464934 
 1173900     300.7794    -11276.89            0   -10381.221   -29542.925    799.23775    9.2802284    9.2802284    9.2802284    32.826212 
 1174000    305.51948   -11287.148            0   -10377.363   -25949.535    797.96467    9.2752983    9.2752983    9.2752983    28.463602 
 1174100    295.23813   -11252.392            0   -10373.223   -10890.851    795.00801    9.2638284    9.2638284    9.2638284    28.756815 
 1174200    300.67315   -11263.268            0   -10367.915    113.57743    791.07727    9.2485355    9.2485355    9.2485355    25.524065 
 1174300    317.01176   -11305.968            0   -10361.961    9324.1676    787.20412    9.2334171    9.2334171    9.2334171    29.915147 
 1174400     308.4459   -11271.697            0   -10353.198    18840.222    784.35136    9.2222499    9.2222499    9.2222499    24.974355 
 1174500    306.31075   -11258.218            0   -10346.077    28142.416    783.03408    9.2170842    9.2170842    9.2170842    28.912056 
 1174600    309.49039   -11261.349            0    -10339.74      25467.2    783.63799    9.2194531    9.2194531    9.2194531    25.398675 
 1174700    298.61023   -11220.778            0   -10331.568     15955.83    786.03205    9.2288323    9.2288323    9.2288323    22.756869 
 1174800    317.00538   -11269.635            0   -10325.647    6915.0235    789.65284    9.2429812    9.2429812    9.2429812    30.169251 
 1174900    314.54805   -11252.958            0   -10316.287   -3422.9941    793.69796    9.2587372    9.2587372    9.2587372    28.144435 
 1175000    313.02169   -11238.616            0   -10306.491    -13997.11    797.27241    9.2726154    9.2726154    9.2726154    31.635745 
 1175100    310.42516   -11219.436            0   -10295.043   -24847.429     799.5925    9.2816012    9.2816012    9.2816012    24.108024 
 1175200    306.42769    -11195.41            0    -10282.92   -29432.835    800.25378    9.2841592    9.2841592    9.2841592    30.887751 
 1175300    295.06622    -11151.83            0   -10273.174   -22956.926    799.16879    9.2799614    9.2799614    9.2799614    26.649819 
 1175400    311.54366    -11193.18            0   -10265.457   -9352.3619    796.68674    9.2703443    9.2703443    9.2703443    26.838793 
 1175500    325.14887   -11228.754            0   -10260.516   -8254.7135    793.52663    9.2580709    9.2580709    9.2580709    29.503018 
 1175600    320.01272     -11213.3            0   -10260.357    8305.8834    790.30741    9.2455344    9.2455344    9.2455344    27.266935 
 1175700    318.24469   -11209.977            0   -10262.298    31852.039    787.89589    9.2361209    9.2361209    9.2361209    26.768381 
 1175800     311.4276   -11198.681            0   -10271.303    19436.917    786.93975    9.2323833    9.2323833    9.2323833    31.651305 
 1175900    314.69401     -11224.4            0   -10287.295    15539.083    787.28945    9.2337507    9.2337507    9.2337507    25.832951 
 1176000    314.86126   -11243.864            0   -10306.261    14965.849    788.76507     9.239516     9.239516     9.239516    27.822019 
Loop time of 3598.92 on 16 procs for 100000 steps with 1000 atoms

Performance: 2.401 ns/day, 9.997 hours/ns, 27.786 timesteps/s
94.0% CPU use with 16 MPI tasks x no OpenMP threads

MPI task timing breakdown:
Section |  min time  |  avg time  |  max time  |%varavg| %total
---------------------------------------------------------------
Pair    | 170.39     | 172.7      | 179.38     |  15.8 |  4.80
Neigh   | 74.825     | 75.78      | 78.583     |  11.0 |  2.11
Comm    | 71.723     | 81.155     | 84.354     |  31.9 |  2.25
Output  | 2314.7     | 2374.4     | 3262.5     | 470.6 | 65.98
Modify  | 5.7941     | 893.94     | 953.67     | 767.0 | 24.84
Other   |            | 0.9012     |            |       |  0.03

Nlocal:    62.5 ave 66 max 57 min
Histogram: 1 0 0 2 4 1 0 5 1 2
Nghost:    1849.25 ave 1862 max 1837 min
Histogram: 1 1 3 2 2 3 0 0 1 3
Neighs:    0 ave 0 max 0 min
Histogram: 16 0 0 0 0 0 0 0 0 0
FullNghs:  18694.4 ave 19914 max 16948 min
Histogram: 1 0 1 3 2 0 3 2 1 3

Total # of neighbors = 299110
Ave neighs/atom = 299.11
Neighbor list builds = 100000
Dangerous builds not checked
Total wall time: 8:05:37
