LAMMPS (16 Mar 2018)
Reading data file ...
  orthogonal box = (-4.72639 -4.72639 -4.72639) to (4.72639 4.72639 4.72639)
  2 by 2 by 4 MPI processor grid
  reading atoms ...
  1000 atoms
Reading potential file /home/fs01/ajm529/lammps-16Mar18/potentials/sw_potentials/AG/eps2.23.sw with DATE: 2008-01-29
Neighbor list info ...
  update every 1 steps, delay 0 steps, check no
  max neighbors/atom: 2000, page size: 100000
  master list distance cutoff = 3.836
  ghost atom cutoff = 3.836
  binsize = 1.918, bins = 5 5 5
  1 neighbor lists, perpetual/occasional/extra = 1 0 0
  (1) pair sw, perpetual
      attributes: full, newton on
      pair build: full/bin/atomonly
      stencil: full/bin/3d
      bin: standard
Setting up Verlet run ...
  Unit style    : real
  Current step  : 0
  Time step     : 1
Per MPI rank memory allocation (min/avg/max) = 3.518 | 3.519 | 3.52 Mbytes
Step Temp E_pair E_mol TotEng Press Volume Lx Ly Lz S/CPU 
       0          300   -10066.354            0   -9173.0054   -33882.936    844.65424    9.4527823    9.4527823    9.4527823            0 
     100    338.43496   -10187.661            0   -9179.8597   -55348.808    842.72714    9.4455879    9.4455879    9.4455879    50.016554 
     200    335.05215   -10194.739            0   -9197.0114   -27333.325    836.54031    9.4224164    9.4224164    9.4224164    44.529537 
     300    339.89008   -10232.112            0   -9219.9772   -23835.766    827.95194    9.3900602    9.3900602    9.3900602    49.522786 
     400    342.08379   -10266.176            0   -9247.5093   -8743.1412    818.02639    9.3523863    9.3523863    9.3523863    47.622492 
     500     334.6407   -10263.799            0   -9267.2962     3521.435     807.8568    9.3134688    9.3134688    9.3134688    54.756238 
     600    347.08592    -10320.22            0   -9286.6572    6154.1808    798.94041    9.2790774    9.2790774    9.2790774    42.937201 
     700    339.09159   -10314.821            0   -9305.0643    5951.9536    791.94619    9.2519205    9.2519205    9.2519205    45.791673 
     800    334.28168   -10323.214            0   -9327.7805    9676.6179    786.89269    9.2321993    9.2321993    9.2321993     50.98736 
     900    329.40803   -10331.019            0   -9350.0981     31833.07    783.65261    9.2195104    9.2195104    9.2195104     53.35032 
    1000    331.32044   -10360.878            0   -9374.2621    21165.244    782.73349    9.2159046    9.2159046    9.2159046    45.467403 
Loop time of 20.7383 on 16 procs for 1000 steps with 1000 atoms

Performance: 4.166 ns/day, 5.761 hours/ns, 48.220 timesteps/s
94.7% CPU use with 16 MPI tasks x no OpenMP threads

MPI task timing breakdown:
Section |  min time  |  avg time  |  max time  |%varavg| %total
---------------------------------------------------------------
Pair    | 2.0934     | 2.23       | 2.4709     |   6.2 | 10.75
Neigh   | 0.7504     | 0.7816     | 0.8543     |   2.5 |  3.77
Comm    | 0.71792    | 1.0315     | 1.1999     |  11.2 |  4.97
Output  | 11.23      | 11.571     | 16.632     |  38.4 | 55.80
Modify  | 0.054152   | 5.1159     | 5.4572     |  57.8 | 24.67
Other   |            | 0.00836    |            |       |  0.04

Nlocal:    62.5 ave 68 max 59 min
Histogram: 2 3 1 2 2 3 1 1 0 1
Nghost:    1867.25 ave 1885 max 1854 min
Histogram: 2 0 0 5 4 4 0 0 0 1
Neighs:    0 ave 0 max 0 min
Histogram: 16 0 0 0 0 0 0 0 0 0
FullNghs:  18852.5 ave 20497 max 17713 min
Histogram: 3 2 1 1 3 1 3 1 0 1

Total # of neighbors = 301640
Ave neighs/atom = 301.64
Neighbor list builds = 1000
Dangerous builds not checked
Setting up Verlet run ...
  Unit style    : real
  Current step  : 1000
  Time step     : 1
Per MPI rank memory allocation (min/avg/max) = 4.577 | 4.578 | 4.58 Mbytes
Step Temp E_pair E_mol TotEng Press Volume Lx Ly Lz S/CPU 
    1000    331.32044   -10360.878            0   -9374.2621    21165.244    782.73349    9.2159046    9.2159046    9.2159046            0 
    1100    329.62797   -10379.486            0   -9397.9105    20412.433    783.61649    9.2193688    9.2193688    9.2193688    46.105571 
    1200    319.14229   -10372.477            0   -9422.1259    26202.301    785.90472    9.2283339    9.2283339    9.2283339    38.651294 
    1300    313.94784   -10378.095            0   -9443.2118    5597.1038    789.42324    9.2420852    9.2420852    9.2420852    51.868741 
    1400    304.51629   -10368.185            0   -9461.3875    7452.2313    793.10396    9.2564268    9.2564268    9.2564268    46.768928 
    1500     300.1384   -10373.638            0   -9479.8769   -17783.631    796.52665    9.2697233    9.2697233    9.2697233    45.728213 
    1600    308.21027   -10414.503            0   -9496.7055    2505.1666    798.83138    9.2786553    9.2786553    9.2786553    44.504708 
    1700    312.98902   -10444.561            0   -9512.5335    -29380.75    800.00275    9.2831883    9.2831883    9.2831883    49.620555 
    1800    304.15418   -10432.913            0    -9527.194   -30651.837    799.33158    9.2805915    9.2805915    9.2805915    45.650553 
    1900    305.55136   -10451.563            0   -9541.6834   -3762.0087    797.10692    9.2719737    9.2719737    9.2719737    41.522075 
    2000    308.21847   -10471.674            0   -9553.8517   -1775.4807    794.09166    9.2602678    9.2602678    9.2602678    45.552321 
Loop time of 22.0656 on 16 procs for 1000 steps with 1000 atoms

Performance: 3.916 ns/day, 6.129 hours/ns, 45.319 timesteps/s
94.7% CPU use with 16 MPI tasks x no OpenMP threads

MPI task timing breakdown:
Section |  min time  |  avg time  |  max time  |%varavg| %total
---------------------------------------------------------------
Pair    | 2.195      | 2.3114     | 2.4479     |   5.1 | 10.48
Neigh   | 0.75262    | 0.78399    | 0.82481    |   2.2 |  3.55
Comm    | 0.8835     | 1.0607     | 1.2022     |   9.3 |  4.81
Output  | 11.565     | 11.963     | 17.867     |  44.1 | 54.22
Modify  | 0.033392   | 5.9381     | 6.3355     |  62.6 | 26.91
Other   |            | 0.008392   |            |       |  0.04

Nlocal:    62.5 ave 69 max 57 min
Histogram: 2 2 1 2 2 3 0 0 1 3
Nghost:    1838.94 ave 1861 max 1816 min
Histogram: 1 0 3 1 3 3 2 0 1 2
Neighs:    0 ave 0 max 0 min
Histogram: 16 0 0 0 0 0 0 0 0 0
FullNghs:  18593.2 ave 20529 max 16872 min
Histogram: 1 2 3 2 2 2 0 0 1 3

Total # of neighbors = 297492
Ave neighs/atom = 297.492
Neighbor list builds = 1000
Dangerous builds not checked
Setting up Verlet run ...
  Unit style    : real
  Current step  : 2000
  Time step     : 1
Per MPI rank memory allocation (min/avg/max) = 4.577 | 4.578 | 4.58 Mbytes
Step Temp E_pair E_mol TotEng Press Volume Lx Ly Lz S/CPU 
    2000    308.21847   -10471.674            0   -9553.8517   -1775.4807    794.09166    9.2602678    9.2602678    9.2602678            0 
    2100    307.18674   -10481.081            0   -9566.3316   -8662.9269    790.59607    9.2466599    9.2466599    9.2466599    50.228575 
    2200    299.16485   -10468.891            0   -9578.0293   -11092.818    786.55542    9.2308801    9.2308801    9.2308801    37.964164 
    2300    303.33379   -10492.854            0   -9589.5776    15166.164    782.41255    9.2146449    9.2146449    9.2146449    42.914068 
    2400    304.15099   -10504.246            0   -9598.5364    16112.042    779.19326    9.2019894    9.2019894    9.2019894    45.964962 
    2500    290.15464   -10471.429            0   -9607.3976    11189.633    777.23417    9.1942709    9.1942709    9.1942709    39.224792 
    2600    305.72284   -10527.234            0   -9616.8436    9071.6511    776.53626    9.1915181    9.1915181    9.1915181    41.944773 
    2700      298.678   -10514.409            0   -9624.9966    5902.9852    776.61204    9.1918171    9.1918171    9.1918171    43.998526 
    2800    295.84754   -10513.724            0   -9632.7406    8692.1135    777.08487    9.1936822    9.1936822    9.1936822    51.537347 
    2900    301.42946    -10537.34            0   -9639.7349    9361.0574    778.33593    9.1986132    9.1986132    9.1986132    56.153848 
    3000    287.84465   -10502.462            0   -9645.3098    746.29849    780.53272    9.2072592    9.2072592    9.2072592    45.078033 
Loop time of 22.2766 on 16 procs for 1000 steps with 1000 atoms

Performance: 3.879 ns/day, 6.188 hours/ns, 44.890 timesteps/s
94.7% CPU use with 16 MPI tasks x no OpenMP threads

MPI task timing breakdown:
Section |  min time  |  avg time  |  max time  |%varavg| %total
---------------------------------------------------------------
Pair    | 2.2259     | 2.391      | 2.5048     |   5.3 | 10.73
Neigh   | 0.74734    | 0.79214    | 0.83279    |   2.6 |  3.56
Comm    | 0.93078    | 1.0825     | 1.2933     |  10.0 |  4.86
Output  | 12.528     | 12.872     | 17.969     |  36.7 | 57.78
Modify  | 0.033419   | 5.1302     | 5.4741     |  58.1 | 23.03
Other   |            | 0.008462   |            |       |  0.04

Nlocal:    62.5 ave 67 max 55 min
Histogram: 1 1 0 1 3 0 2 0 6 2
Nghost:    1851.75 ave 1873 max 1835 min
Histogram: 3 1 1 2 0 4 3 1 0 1
Neighs:    0 ave 0 max 0 min
Histogram: 16 0 0 0 0 0 0 0 0 0
FullNghs:  18912 ave 20344 max 16701 min
Histogram: 1 1 1 2 1 0 2 2 4 2

Total # of neighbors = 302592
Ave neighs/atom = 302.592
Neighbor list builds = 1000
Dangerous builds not checked
Setting up Verlet run ...
  Unit style    : real
  Current step  : 3000
  Time step     : 1
Per MPI rank memory allocation (min/avg/max) = 4.577 | 4.578 | 4.58 Mbytes
Step Temp E_pair E_mol TotEng Press Volume Lx Ly Lz S/CPU 
    3000    287.84465   -10502.462            0   -9645.3098    746.29849    780.53272    9.2072592    9.2072592    9.2072592            0 
    3100    297.78945   -10536.652            0    -9649.886   -23530.384    782.97744     9.216862     9.216862     9.216862    46.098861 
    3200    299.57348   -10545.474            0    -9653.395   -9320.3955     784.9772     9.224702     9.224702     9.224702    62.382728 
    3300    292.74262   -10525.882            0   -9654.1445   -9206.6858    786.23547    9.2296283    9.2296283    9.2296283     49.31681 
    3400     292.4009   -10523.689            0    -9652.969   -868.62149    786.59824    9.2310476    9.2310476    9.2310476    53.213712 
    3500      291.203   -10517.483            0   -9650.3301    -10199.48    786.42888     9.230385     9.230385     9.230385    56.267024 
    3600    305.01782   -10555.319            0   -9647.0284   -14462.958    786.12074    9.2291793    9.2291793    9.2291793    47.649113 
    3700    299.00133   -10530.891            0   -9640.5165   -429.78179    785.62302    9.2272312    9.2272312    9.2272312    43.412653 
    3800    293.31294   -10508.564            0   -9635.1281    3498.8217      785.054    9.2250029    9.2250029    9.2250029    36.084414 
    3900    306.36709   -10540.509            0   -9628.2003    -3799.736    784.41556    9.2225015    9.2225015    9.2225015    44.839895 
    4000    304.46883   -10525.937            0   -9619.2806     1673.068    783.36784    9.2183936    9.2183936    9.2183936    47.852403 
Loop time of 20.9498 on 16 procs for 1000 steps with 1000 atoms

Performance: 4.124 ns/day, 5.819 hours/ns, 47.733 timesteps/s
94.8% CPU use with 16 MPI tasks x no OpenMP threads

MPI task timing breakdown:
Section |  min time  |  avg time  |  max time  |%varavg| %total
---------------------------------------------------------------
Pair    | 2.2253     | 2.3774     | 2.5432     |   5.6 | 11.35
Neigh   | 0.75684    | 0.79569    | 0.84011    |   2.8 |  3.80
Comm    | 0.82205    | 1.0311     | 1.2225     |  10.8 |  4.92
Output  | 11.554     | 11.879     | 16.694     |  36.1 | 56.70
Modify  | 0.041461   | 4.8582     | 5.1836     |  56.4 | 23.19
Other   |            | 0.008459   |            |       |  0.04

Nlocal:    62.5 ave 67 max 57 min
Histogram: 1 0 1 3 0 3 1 4 1 2
Nghost:    1862.88 ave 1900 max 1821 min
Histogram: 2 0 1 2 3 1 2 2 1 2
Neighs:    0 ave 0 max 0 min
Histogram: 16 0 0 0 0 0 0 0 0 0
FullNghs:  18842.4 ave 20379 max 17043 min
Histogram: 1 0 2 2 0 4 3 2 0 2

Total # of neighbors = 301478
Ave neighs/atom = 301.478
Neighbor list builds = 1000
Dangerous builds not checked
Setting up Verlet run ...
  Unit style    : real
  Current step  : 4000
  Time step     : 1
Per MPI rank memory allocation (min/avg/max) = 4.577 | 4.578 | 4.58 Mbytes
Step Temp E_pair E_mol TotEng Press Volume Lx Ly Lz S/CPU 
    4000    304.46883   -10525.937            0   -9619.2806     1673.068    783.36784    9.2183936    9.2183936    9.2183936            0 
    4100    304.34705   -10517.603            0   -9611.3093    4961.0158    782.51533    9.2150483    9.2150483    9.2150483      44.7583 
    4200    304.99829   -10513.298            0   -9605.0651    3600.7187     782.2657    9.2140684    9.2140684    9.2140684    60.351815 
    4300    305.76587   -10509.539            0   -9599.0204   -3287.5936    782.37993    9.2145168    9.2145168    9.2145168    51.357833 
    4400    292.45154   -10463.904            0    -9593.033    3401.7762    782.72261    9.2158619    9.2158619    9.2158619    44.199596 
    4500    299.06913   -10477.274            0   -9586.6967   -6072.4146    783.35835    9.2183564    9.2183564    9.2183564    38.123913 
    4600    305.30072   -10491.428            0   -9582.2949   -11258.902    784.17599    9.2215625    9.2215625    9.2215625    42.528178 
    4700    304.22836   -10484.582            0   -9578.6417    16488.162    784.89153    9.2243664    9.2243664    9.2243664    42.676002 
    4800    294.49948   -10451.519            0   -9574.5502     4462.843    786.22578    9.2295904    9.2295904    9.2295904    48.862322 
    4900    300.03088   -10465.819            0   -9572.3779    -2885.301    787.68254    9.2352872    9.2352872    9.2352872    40.941985 
    5000    295.63527   -10449.008            0   -9568.6563   -11557.189    788.75427    9.2394738    9.2394738    9.2394738    40.183861 
Loop time of 22.396 on 16 procs for 1000 steps with 1000 atoms

Performance: 3.858 ns/day, 6.221 hours/ns, 44.651 timesteps/s
94.7% CPU use with 16 MPI tasks x no OpenMP threads

MPI task timing breakdown:
Section |  min time  |  avg time  |  max time  |%varavg| %total
---------------------------------------------------------------
Pair    | 2.2037     | 2.3879     | 2.5575     |   6.4 | 10.66
Neigh   | 0.73434    | 0.79678    | 0.8358     |   2.9 |  3.56
Comm    | 0.88255    | 1.0919     | 1.3386     |  11.8 |  4.88
Output  | 11.517     | 11.929     | 18.053     |  45.8 | 53.26
Modify  | 0.057826   | 6.1819     | 6.5948     |  63.6 | 27.60
Other   |            | 0.008505   |            |       |  0.04

Nlocal:    62.5 ave 69 max 57 min
Histogram: 3 2 1 0 2 3 1 2 0 2
Nghost:    1849.44 ave 1863 max 1832 min
Histogram: 1 1 2 1 3 1 1 2 0 4
Neighs:    0 ave 0 max 0 min
Histogram: 16 0 0 0 0 0 0 0 0 0
FullNghs:  18716.2 ave 20568 max 17001 min
Histogram: 1 4 0 1 3 0 2 2 1 2

Total # of neighbors = 299460
Ave neighs/atom = 299.46
Neighbor list builds = 1000
Dangerous builds not checked
Setting up Verlet run ...
  Unit style    : real
  Current step  : 5000
  Time step     : 1
Per MPI rank memory allocation (min/avg/max) = 4.577 | 4.578 | 4.58 Mbytes
Step Temp E_pair E_mol TotEng Press Volume Lx Ly Lz S/CPU 
    5000    295.63527   -10449.008            0   -9568.6563   -11557.189    788.75427    9.2394738    9.2394738    9.2394738            0 
    5100    298.54278   -10455.653            0   -9566.6434   -1091.5534    789.39605    9.2419791    9.2419791    9.2419791    49.618747 
    5200    302.16417   -10466.364            0   -9566.5712    8203.3208    789.87976    9.2438664    9.2438664    9.2438664     41.78711 
    5300    304.87556   -10473.743            0   -9565.8753   -665.20871    790.04013     9.244492     9.244492     9.244492    53.782074 
    5400    294.73782   -10444.474            0    -9566.795    1706.1481    789.68527    9.2431077    9.2431077    9.2431077    49.123295 
    5500    298.22459   -10454.822            0   -9566.7604   -3256.6947    789.10565    9.2408457    9.2408457    9.2408457    44.933353 
    5600    304.19925   -10473.492            0   -9567.6389    18843.911    788.31604    9.2377624    9.2377624    9.2377624    52.713279 
    5700    298.98715    -10461.09            0   -9570.7577   -3693.1461     788.0925    9.2368891    9.2368891    9.2368891     38.21409 
    5800    299.19118   -10467.329            0   -9576.3884      6700.88    787.94236    9.2363025    9.2363025    9.2363025     45.95877 
    5900    302.50868   -10485.058            0   -9584.2385    1120.4296    787.92598    9.2362385    9.2362385    9.2362385    55.363652 
    6000     294.0906   -10470.074            0   -9594.3222   -994.05688    787.59045    9.2349273    9.2349273    9.2349273    40.184285 
Loop time of 21.5137 on 16 procs for 1000 steps with 1000 atoms

Performance: 4.016 ns/day, 5.976 hours/ns, 46.482 timesteps/s
94.7% CPU use with 16 MPI tasks x no OpenMP threads

MPI task timing breakdown:
Section |  min time  |  avg time  |  max time  |%varavg| %total
---------------------------------------------------------------
Pair    | 2.2516     | 2.3651     | 2.5143     |   3.8 | 10.99
Neigh   | 0.75734    | 0.79626    | 0.85419    |   2.0 |  3.70
Comm    | 0.83443    | 1.0415     | 1.1948     |   7.3 |  4.84
Output  | 11.258     | 11.636     | 17.258     |  42.5 | 54.09
Modify  | 0.044379   | 5.6658     | 6.0446     |  61.0 | 26.34
Other   |            | 0.008603   |            |       |  0.04

Nlocal:    62.5 ave 69 max 56 min
Histogram: 3 0 1 2 2 1 2 3 1 1
Nghost:    1853.12 ave 1872 max 1830 min
Histogram: 1 0 3 1 1 2 3 1 2 2
Neighs:    0 ave 0 max 0 min
Histogram: 16 0 0 0 0 0 0 0 0 0
FullNghs:  18747.5 ave 20849 max 16690 min
Histogram: 3 0 1 2 2 1 2 3 1 1

Total # of neighbors = 299960
Ave neighs/atom = 299.96
Neighbor list builds = 1000
Dangerous builds not checked
Setting up Verlet run ...
  Unit style    : real
  Current step  : 6000
  Time step     : 1
Per MPI rank memory allocation (min/avg/max) = 4.577 | 4.578 | 4.58 Mbytes
Step Temp E_pair E_mol TotEng Press Volume Lx Ly Lz S/CPU 
    6000     294.0906   -10470.074            0   -9594.3222   -994.05688    787.59045    9.2349273    9.2349273    9.2349273            0 
    6100    295.77078   -10485.947            0    -9605.192    2805.4417    786.99753    9.2326093    9.2326093    9.2326093    53.501217 
    6200    307.66136   -10532.768            0   -9616.6048   -5031.7281    786.19617    9.2294745    9.2294745    9.2294745    45.161766 
    6300    300.33148   -10519.976            0     -9625.64    40.326579    785.55111    9.2269496    9.2269496    9.2269496    48.030821 
    6400    294.51313   -10509.802            0   -9632.7923    3988.6885    785.35055    9.2261643    9.2261643    9.2261643    43.817516 
    6500    287.75938   -10494.451            0   -9637.5526    7553.0558    785.37726    9.2262689    9.2262689    9.2262689    52.040045 
    6600     292.2512   -10511.216            0   -9640.9422    17312.107    785.42748    9.2264655    9.2264655    9.2264655    33.013978 
    6700    293.91562   -10517.894            0   -9642.6634    4770.9279    785.63992    9.2272973    9.2272973    9.2272973    43.878913 
    6800    297.12939   -10528.301            0   -9643.5002    1235.2617    785.68785     9.227485     9.227485     9.227485    41.721222 
    6900    293.10774    -10515.32            0   -9642.4953   -7239.9422    785.46581    9.2266156    9.2266156    9.2266156    47.705043 
    7000    298.70533    -10529.25            0   -9639.7561   -3153.8653     784.7975    9.2239981    9.2239981    9.2239981    67.048068 
Loop time of 21.6618 on 16 procs for 1000 steps with 1000 atoms

Performance: 3.989 ns/day, 6.017 hours/ns, 46.164 timesteps/s
94.7% CPU use with 16 MPI tasks x no OpenMP threads

MPI task timing breakdown:
Section |  min time  |  avg time  |  max time  |%varavg| %total
---------------------------------------------------------------
Pair    | 1.9641     | 2.1071     | 2.5321     |   8.8 |  9.73
Neigh   | 0.67073    | 0.71896    | 0.83607    |   4.2 |  3.32
Comm    | 0.69107    | 1.2331     | 1.4195     |  14.7 |  5.69
Output  | 11.265     | 11.662     | 17.558     |  44.6 | 53.84
Modify  | 0.036149   | 5.9331     | 6.3301     |  62.5 | 27.39
Other   |            | 0.007892   |            |       |  0.04

Nlocal:    62.5 ave 68 max 58 min
Histogram: 1 3 1 1 3 1 0 3 2 1
Nghost:    1857.5 ave 1870 max 1849 min
Histogram: 3 4 0 2 0 3 1 1 0 2
Neighs:    0 ave 0 max 0 min
Histogram: 16 0 0 0 0 0 0 0 0 0
FullNghs:  18820.6 ave 20576 max 17428 min
Histogram: 3 1 2 0 4 0 2 2 1 1

Total # of neighbors = 301130
Ave neighs/atom = 301.13
Neighbor list builds = 1000
Dangerous builds not checked
Setting up Verlet run ...
  Unit style    : real
  Current step  : 7000
  Time step     : 1
Per MPI rank memory allocation (min/avg/max) = 4.577 | 4.578 | 4.58 Mbytes
Step Temp E_pair E_mol TotEng Press Volume Lx Ly Lz S/CPU 
    7000    298.70533    -10529.25            0   -9639.7561   -3153.8653     784.7975    9.2239981    9.2239981    9.2239981            0 
    7100    289.53067   -10496.646            0   -9634.4727   -18.003262    784.03763    9.2210201    9.2210201    9.2210201    43.581674 
    7200    298.68173   -10517.959            0   -9628.5355   -8619.1919    783.12435    9.2174384    9.2174384    9.2174384    51.042425 
    7300    293.16989   -10489.945            0   -9616.9354    657.51226    781.65693    9.2116775    9.2116775    9.2116775     55.79546 
    7400    305.83728   -10513.929            0   -9603.1974    5387.4067    780.06148    9.2054059    9.2054059    9.2054059    45.916169 
    7500    294.29067   -10463.895            0   -9587.5474    26554.519    778.63891    9.1998067    9.1998067    9.1998067    46.521039 
    7600    305.70201   -10484.653            0   -9574.3248    6746.7983    778.13488    9.1978212    9.1978212    9.1978212    56.040413 
    7700    304.60593   -10471.616            0   -9564.5515    18194.839     778.2054     9.198099     9.198099     9.198099    41.369767 
    7800    300.15882   -10452.104            0   -9558.2822    10765.476    778.98499    9.2011695    9.2011695    9.2011695    54.137168 
    7900     296.7927   -10439.574            0   -9555.7765      2310.49    780.24152    9.2061141    9.2061141    9.2061141     48.18482 
    8000     298.4507   -10444.861            0   -9556.1256    10278.601    782.01246     9.213074     9.213074     9.213074    45.413465 
Loop time of 20.6996 on 16 procs for 1000 steps with 1000 atoms

Performance: 4.174 ns/day, 5.750 hours/ns, 48.310 timesteps/s
94.7% CPU use with 16 MPI tasks x no OpenMP threads

MPI task timing breakdown:
Section |  min time  |  avg time  |  max time  |%varavg| %total
---------------------------------------------------------------
Pair    | 1.7129     | 1.9003     | 2.399      |  12.7 |  9.18
Neigh   | 0.59219    | 0.65056    | 0.80018    |   6.2 |  3.14
Comm    | 0.76278    | 1.4115     | 1.6441     |  18.9 |  6.82
Output  | 11.506     | 11.834     | 16.701     |  36.5 | 57.17
Modify  | 0.027563   | 4.8955     | 5.2248     |  56.8 | 23.65
Other   |            | 0.007315   |            |       |  0.04

Nlocal:    62.5 ave 68 max 58 min
Histogram: 1 1 1 3 1 4 3 0 1 1
Nghost:    1846.75 ave 1870 max 1821 min
Histogram: 1 3 2 0 2 1 0 2 3 2
Neighs:    0 ave 0 max 0 min
Histogram: 16 0 0 0 0 0 0 0 0 0
FullNghs:  18868 ave 20754 max 17326 min
Histogram: 1 2 0 3 2 5 1 1 0 1

Total # of neighbors = 301888
Ave neighs/atom = 301.888
Neighbor list builds = 1000
Dangerous builds not checked
Setting up Verlet run ...
  Unit style    : real
  Current step  : 8000
  Time step     : 1
Per MPI rank memory allocation (min/avg/max) = 4.577 | 4.578 | 4.58 Mbytes
Step Temp E_pair E_mol TotEng Press Volume Lx Ly Lz S/CPU 
    8000     298.4507   -10444.861            0   -9556.1256    10278.601    782.01246     9.213074     9.213074     9.213074            0 
    8100    324.87292   -10525.551            0   -9558.1344    16840.331    784.06933    9.2211444    9.2211444    9.2211444    46.129815 
    8200    305.00242   -10468.753            0   -9560.5074    5666.0897    786.38527    9.2302144    9.2302144    9.2302144    50.248129 
    8300    309.39197   -10483.892            0   -9562.5752    3125.8555    788.57787     9.238785     9.238785     9.238785    52.552194 
    8400     313.9767   -10502.206            0   -9567.2373    -12799.73    790.35628     9.245725     9.245725     9.245725    48.598408 
    8500    301.00072   -10466.023            0   -9569.6938   -15473.698    791.52628     9.250285     9.250285     9.250285     52.13901 
    8600     300.6994    -10468.98            0   -9573.5482   -6500.1361    792.09031    9.2524817    9.2524817    9.2524817    39.511974 
    8700    301.83521   -10476.253            0   -9577.4397   -6177.6187    792.11695    9.2525854    9.2525854    9.2525854    51.816991 
    8800    294.86836    -10458.98            0    -9580.912   -1467.1434    791.27341    9.2492998    9.2492998    9.2492998    46.447586 
    8900    290.04365   -10448.238            0   -9584.5379   -22298.638    789.77007    9.2434385    9.2434385    9.2434385    52.795581 
    9000    289.58552   -10451.002            0   -9588.6662   -10044.975    787.48835    9.2345282    9.2345282    9.2345282    48.088317 
Loop time of 20.6238 on 16 procs for 1000 steps with 1000 atoms

Performance: 4.189 ns/day, 5.729 hours/ns, 48.488 timesteps/s
94.7% CPU use with 16 MPI tasks x no OpenMP threads

MPI task timing breakdown:
Section |  min time  |  avg time  |  max time  |%varavg| %total
---------------------------------------------------------------
Pair    | 1.6606     | 1.8879     | 2.3973     |  12.7 |  9.15
Neigh   | 0.59939    | 0.65713    | 0.80948    |   6.2 |  3.19
Comm    | 0.75397    | 1.4117     | 1.6854     |  18.9 |  6.85
Output  | 11.578     | 11.897     | 16.628     |  35.4 | 57.69
Modify  | 0.026568   | 4.7624     | 5.0835     |  56.0 | 23.09
Other   |            | 0.007314   |            |       |  0.04

Nlocal:    62.5 ave 67 max 59 min
Histogram: 1 2 4 2 0 3 0 1 2 1
Nghost:    1853 ave 1865 max 1840 min
Histogram: 1 0 2 2 5 0 1 2 0 3
Neighs:    0 ave 0 max 0 min
Histogram: 16 0 0 0 0 0 0 0 0 0
FullNghs:  18738.9 ave 20047 max 17617 min
Histogram: 1 2 2 2 2 3 0 1 1 2

Total # of neighbors = 299822
Ave neighs/atom = 299.822
Neighbor list builds = 1000
Dangerous builds not checked
Setting up Verlet run ...
  Unit style    : real
  Current step  : 9000
  Time step     : 1
Per MPI rank memory allocation (min/avg/max) = 4.577 | 4.578 | 4.58 Mbytes
Step Temp E_pair E_mol TotEng Press Volume Lx Ly Lz S/CPU 
    9000    289.58552   -10451.002            0   -9588.6662   -10044.975    787.48835    9.2345282    9.2345282    9.2345282            0 
    9100    298.00312   -10480.617            0   -9593.2143   -2412.5611    784.67384    9.2235136    9.2235136    9.2235136    51.182112 
    9200    304.44712   -10505.082            0   -9598.4904    9153.7593    781.73555    9.2119864    9.2119864    9.2119864    40.981396 
    9300    299.14658   -10494.352            0   -9603.5445    4804.4923    779.11217    9.2016702    9.2016702    9.2016702    46.147726 
    9400    316.65298   -10553.554            0   -9610.6156     26488.61    777.11357    9.1937953    9.1937953    9.1937953    46.528156 
    9500    305.12627   -10528.749            0   -9620.1347     20175.32    776.41792    9.1910512    9.1910512    9.1910512    56.041648 
    9600    309.57037   -10553.179            0   -9631.3313    3153.7525    776.55533    9.1915933    9.1915933    9.1915933    55.830448 
    9700    305.06817   -10552.553            0   -9644.1122    9014.5832    777.32513    9.1946295    9.1946295    9.1946295    44.953056 
    9800    289.49194   -10518.807            0   -9656.7495    18098.194    779.01598    9.2012915    9.2012915    9.2012915    46.527797 
    9900    290.73764   -10532.659            0   -9666.8917    18709.602    781.53594    9.2112022    9.2112022    9.2112022    39.821366 
   10000    284.29341   -10520.463            0   -9673.8854    1707.1284    784.86179      9.22425      9.22425      9.22425    54.144509 
Loop time of 21.0176 on 16 procs for 1000 steps with 1000 atoms

Performance: 4.111 ns/day, 5.838 hours/ns, 47.579 timesteps/s
94.7% CPU use with 16 MPI tasks x no OpenMP threads

MPI task timing breakdown:
Section |  min time  |  avg time  |  max time  |%varavg| %total
---------------------------------------------------------------
Pair    | 1.6952     | 1.8999     | 2.3809     |  11.7 |  9.04
Neigh   | 0.59748    | 0.65021    | 0.78412    |   5.5 |  3.09
Comm    | 0.82391    | 1.439      | 1.6948     |  17.1 |  6.85
Output  | 11.561     | 11.905     | 16.993     |  38.1 | 56.64
Modify  | 0.026689   | 5.1165     | 5.4604     |  58.1 | 24.34
Other   |            | 0.007333   |            |       |  0.03

Nlocal:    62.5 ave 71 max 55 min
Histogram: 1 1 2 1 3 4 2 1 0 1
Nghost:    1856.81 ave 1869 max 1835 min
Histogram: 1 0 1 1 1 1 1 6 2 2
Neighs:    0 ave 0 max 0 min
Histogram: 16 0 0 0 0 0 0 0 0 0
FullNghs:  18820.5 ave 21590 max 16539 min
Histogram: 1 1 2 1 4 3 3 0 0 1

Total # of neighbors = 301128
Ave neighs/atom = 301.128
Neighbor list builds = 1000
Dangerous builds not checked
Setting up Verlet run ...
  Unit style    : real
  Current step  : 10000
  Time step     : 1
Per MPI rank memory allocation (min/avg/max) = 4.577 | 4.578 | 4.58 Mbytes
Step Temp E_pair E_mol TotEng Press Volume Lx Ly Lz S/CPU 
   10000    284.29341   -10520.463            0   -9673.8854    1707.1284    784.86179      9.22425      9.22425      9.22425            0 
   10100    284.72683   -10524.621            0   -9676.7528   -5544.1295     788.5044    9.2384981    9.2384981    9.2384981     52.72291 
   10200    291.29794   -10541.999            0   -9674.5631    -9940.254    791.33114    9.2495248    9.2495248    9.2495248     43.36433 
   10300    281.59189   -10508.925            0   -9670.3927   -23433.277    793.54805    9.2581542    9.2581542    9.2581542    58.556897 
   10400    286.85347   -10517.211            0   -9663.0107   -14078.313    794.72737    9.2627382    9.2627382    9.2627382    58.476514 
   10500    287.89407   -10512.032            0    -9654.733   -17730.963    794.77999    9.2629426    9.2629426    9.2629426    42.813472 
   10600    301.70507    -10547.34            0   -9648.9139   -24177.204    793.44286    9.2577451    9.2577451    9.2577451    43.222014 
   10700    298.61989   -10531.654            0    -9642.415   -25677.664    790.72828    9.2471753    9.2471753    9.2471753    43.412304 
   10800    294.60406   -10514.634            0    -9637.353   -7977.1405    786.60404    9.2310703    9.2310703    9.2310703    51.451419 
   10900     289.6376   -10493.281            0   -9630.7899    9349.5171    782.12419    9.2135127    9.2135127    9.2135127    51.497131 
   11000    300.70058   -10520.776            0   -9625.3415    16697.842    778.11766    9.1977533    9.1977533    9.1977533    49.566574 
Loop time of 20.4764 on 16 procs for 1000 steps with 1000 atoms

Performance: 4.219 ns/day, 5.688 hours/ns, 48.837 timesteps/s
94.7% CPU use with 16 MPI tasks x no OpenMP threads

MPI task timing breakdown:
Section |  min time  |  avg time  |  max time  |%varavg| %total
---------------------------------------------------------------
Pair    | 1.7176     | 1.8609     | 2.4212     |  12.1 |  9.09
Neigh   | 0.60645    | 0.65194    | 0.81528    |   5.9 |  3.18
Comm    | 0.65607    | 1.3793     | 1.5651     |  18.0 |  6.74
Output  | 11.474     | 11.795     | 16.549     |  35.7 | 57.60
Modify  | 0.026011   | 4.7821     | 5.1034     |  56.2 | 23.35
Other   |            | 0.007294   |            |       |  0.04

Nlocal:    62.5 ave 66 max 58 min
Histogram: 1 1 2 1 0 1 4 3 2 1
Nghost:    1874.5 ave 1887 max 1860 min
Histogram: 2 0 1 0 4 1 4 0 3 1
Neighs:    0 ave 0 max 0 min
Histogram: 16 0 0 0 0 0 0 0 0 0
FullNghs:  18975.1 ave 20119 max 17547 min
Histogram: 1 2 1 1 1 1 3 3 1 2

Total # of neighbors = 303602
Ave neighs/atom = 303.602
Neighbor list builds = 1000
Dangerous builds not checked
Setting up Verlet run ...
  Unit style    : real
  Current step  : 11000
  Time step     : 1
Per MPI rank memory allocation (min/avg/max) = 4.577 | 4.578 | 4.58 Mbytes
Step Temp E_pair E_mol TotEng Press Volume Lx Ly Lz S/CPU 
   11000    300.70058   -10520.776            0   -9625.3415    16697.842    778.11766    9.1977533    9.1977533    9.1977533            0 
   11100     296.8556   -10504.195            0   -9620.2096   -341.21416     774.7744    9.1845614    9.1845614    9.1845614     42.40429 
   11200     297.9496   -10500.839            0   -9613.5965    14490.542    772.14193    9.1741474    9.1741474    9.1741474     43.74162 
   11300    305.14841   -10517.194            0   -9608.5145    23189.826     770.7557    9.1686539    9.1686539    9.1686539    40.100284 
   11400    298.08935   -10492.311            0   -9604.6513    16890.648    770.93804    9.1693769    9.1693769    9.1693769    51.393982 
   11500    298.26838   -10489.233            0   -9601.0406    15805.322    772.51421    9.1756216    9.1756216    9.1756216    37.543674 
   11600    297.50589   -10484.416            0    -9598.494    1343.2022    775.15743    9.1860747    9.1860747    9.1860747    51.750398 
   11700    296.45013   -10476.312            0   -9593.5345     3206.267    778.10057     9.197686     9.197686     9.197686    36.728008 
   11800    313.04762   -10523.627            0   -9591.4245    1248.3652    780.81842    9.2083825    9.2083825    9.2083825    53.155004 
   11900    302.46535   -10486.153            0   -9585.4632   -10685.518    782.97976    9.2168711    9.2168711    9.2168711    42.185574 
   12000    303.03423   -10482.657            0   -9580.2733   -22612.283    784.65089    9.2234237    9.2234237    9.2234237    43.483361 
Loop time of 22.9541 on 16 procs for 1000 steps with 1000 atoms

Performance: 3.764 ns/day, 6.376 hours/ns, 43.565 timesteps/s
94.6% CPU use with 16 MPI tasks x no OpenMP threads

MPI task timing breakdown:
Section |  min time  |  avg time  |  max time  |%varavg| %total
---------------------------------------------------------------
Pair    | 1.7892     | 1.9281     | 2.4414     |  10.8 |  8.40
Neigh   | 0.60755    | 0.65394    | 0.82016    |   5.8 |  2.85
Comm    | 0.73454    | 1.4132     | 1.5984     |  16.5 |  6.16
Output  | 13.161     | 13.525     | 18.923     |  37.9 | 58.92
Modify  | 0.026328   | 5.4264     | 5.7907     |  59.9 | 23.64
Other   |            | 0.007381   |            |       |  0.03

Nlocal:    62.5 ave 68 max 55 min
Histogram: 2 0 2 0 2 1 3 3 0 3
Nghost:    1861.44 ave 1873 max 1849 min
Histogram: 3 0 1 3 2 1 0 1 2 3
Neighs:    0 ave 0 max 0 min
Histogram: 16 0 0 0 0 0 0 0 0 0
FullNghs:  18801.9 ave 20738 max 16428 min
Histogram: 2 0 2 0 2 1 3 3 1 2

Total # of neighbors = 300830
Ave neighs/atom = 300.83
Neighbor list builds = 1000
Dangerous builds not checked
Setting up Verlet run ...
  Unit style    : real
  Current step  : 12000
  Time step     : 1
Per MPI rank memory allocation (min/avg/max) = 4.577 | 4.578 | 4.58 Mbytes
Step Temp E_pair E_mol TotEng Press Volume Lx Ly Lz S/CPU 
   12000    303.03423   -10482.657            0   -9580.2733   -22612.283    784.65089    9.2234237    9.2234237    9.2234237            0 
   12100    301.45886    -10472.38            0   -9574.6871   -6530.8164    785.54267    9.2269166    9.2269166    9.2269166    54.770214 
   12200    300.60327   -10463.936            0   -9568.7909   -7358.1825     785.6486    9.2273313    9.2273313    9.2273313    51.624129 
   12300    300.98891   -10460.853            0   -9564.5595    577.38882    785.51854    9.2268221    9.2268221    9.2268221    40.640584 
   12400    302.14213   -10460.176            0   -9560.4483   -6703.7464    785.22325    9.2256658    9.2256658    9.2256658    45.175001 
   12500    310.28278   -10481.217            0   -9557.2477    2803.4703    784.76992      9.22389      9.22389      9.22389    45.565568 
   12600    301.57112   -10451.055            0   -9553.0277    11328.466    784.85988    9.2242425    9.2242425    9.2242425    46.233011 
   12700    311.07716   -10476.153            0   -9549.8188   -6364.4927    785.32847    9.2260778    9.2260778    9.2260778    52.333284 
   12800    310.29676   -10469.894            0   -9545.8834     2053.829    785.41934    9.2264337    9.2264337    9.2264337    45.018888 
   12900    309.98387   -10467.585            0   -9544.5064    516.14349    785.50605    9.2267732    9.2267732    9.2267732    38.747662 
   13000    298.49397   -10433.038            0   -9544.1742   -1389.9952    785.96035    9.2285516    9.2285516    9.2285516    50.773774 
Loop time of 21.4772 on 16 procs for 1000 steps with 1000 atoms

Performance: 4.023 ns/day, 5.966 hours/ns, 46.561 timesteps/s
94.7% CPU use with 16 MPI tasks x no OpenMP threads

MPI task timing breakdown:
Section |  min time  |  avg time  |  max time  |%varavg| %total
---------------------------------------------------------------
Pair    | 1.7003     | 1.892      | 2.5007     |  12.9 |  8.81
Neigh   | 0.59877    | 0.6536     | 0.82833    |   6.2 |  3.04
Comm    | 0.63656    | 1.4196     | 1.6649     |  19.1 |  6.61
Output  | 11.795     | 12.154     | 17.477     |  39.4 | 56.59
Modify  | 0.025644   | 5.351      | 5.7107     |  59.4 | 24.91
Other   |            | 0.007428   |            |       |  0.03

Nlocal:    62.5 ave 68 max 57 min
Histogram: 1 0 2 2 3 3 2 2 0 1
Nghost:    1864.31 ave 1875 max 1852 min
Histogram: 1 1 0 4 3 0 2 2 1 2
Neighs:    0 ave 0 max 0 min
Histogram: 16 0 0 0 0 0 0 0 0 0
FullNghs:  18770.1 ave 20479 max 17121 min
Histogram: 1 0 2 2 3 3 2 2 0 1

Total # of neighbors = 300322
Ave neighs/atom = 300.322
Neighbor list builds = 1000
Dangerous builds not checked
Setting up Verlet run ...
  Unit style    : real
  Current step  : 13000
  Time step     : 1
Per MPI rank memory allocation (min/avg/max) = 4.577 | 4.578 | 4.58 Mbytes
Step Temp E_pair E_mol TotEng Press Volume Lx Ly Lz S/CPU 
   13000    298.49397   -10433.038            0   -9544.1742   -1389.9952    785.96035    9.2285516    9.2285516    9.2285516            0 
   13100    299.53789   -10438.022            0   -9546.0498   -5671.5297    786.55786    9.2308896    9.2308896    9.2308896    31.913734 
   13200    309.96544   -10472.407            0   -9549.3824   -10240.375    786.95994    9.2324623    9.2324623    9.2324623    51.348133 
   13300    296.95832   -10438.814            0   -9554.5231   -4389.2618    786.97781    9.2325322    9.2325322    9.2325322    37.603105 
   13400    293.18565   -10434.235            0   -9561.1781   -21731.488    786.74381     9.231617     9.231617     9.231617    50.395923 
   13500    307.88956   -10488.211            0   -9571.3686    268.93887    786.11585    9.2291602    9.2291602    9.2291602    48.208446 
   13600    306.59334   -10494.493            0   -9581.5103     6028.725    785.61334    9.2271932    9.2271932    9.2271932     55.99739 
   13700    297.92858   -10478.975            0   -9591.7941    3074.5302    785.49399     9.226726     9.226726     9.226726    33.687744 
   13800    303.77863   -10507.531            0   -9602.9302    2860.0256    785.46955    9.2266303    9.2266303    9.2266303    41.095369 
   13900    301.96342   -10509.238            0   -9610.0423   -8574.7143    785.41231    9.2264061    9.2264061    9.2264061    48.426669 
   14000    299.69119   -10509.853            0   -9617.4242   -22829.155    785.29421    9.2259437    9.2259437    9.2259437    39.637559 
Loop time of 23.5744 on 16 procs for 1000 steps with 1000 atoms

Performance: 3.665 ns/day, 6.548 hours/ns, 42.419 timesteps/s
94.6% CPU use with 16 MPI tasks x no OpenMP threads

MPI task timing breakdown:
Section |  min time  |  avg time  |  max time  |%varavg| %total
---------------------------------------------------------------
Pair    | 1.6648     | 1.8474     | 2.3162     |  11.4 |  7.84
Neigh   | 0.59188    | 0.64143    | 0.78372    |   6.1 |  2.72
Comm    | 0.75822    | 1.3679     | 1.6027     |  17.3 |  5.80
Output  | 12.588     | 13.035     | 19.683     |  47.5 | 55.29
Modify  | 0.025148   | 6.6754     | 7.1233     |  66.5 | 28.32
Other   |            | 0.007284   |            |       |  0.03

Nlocal:    62.5 ave 69 max 57 min
Histogram: 2 1 1 2 3 2 1 2 1 1
Nghost:    1858 ave 1884 max 1832 min
Histogram: 2 1 3 0 2 1 1 3 2 1
Neighs:    0 ave 0 max 0 min
Histogram: 16 0 0 0 0 0 0 0 0 0
FullNghs:  18770.5 ave 20925 max 17025 min
Histogram: 2 1 1 2 5 0 1 2 1 1

Total # of neighbors = 300328
Ave neighs/atom = 300.328
Neighbor list builds = 1000
Dangerous builds not checked
Setting up Verlet run ...
  Unit style    : real
  Current step  : 14000
  Time step     : 1
Per MPI rank memory allocation (min/avg/max) = 4.577 | 4.578 | 4.58 Mbytes
Step Temp E_pair E_mol TotEng Press Volume Lx Ly Lz S/CPU 
   14000    299.69119   -10509.853            0   -9617.4242   -22829.155    785.29421    9.2259437    9.2259437    9.2259437            0 
   14100    296.32702   -10505.741            0   -9623.3302   -9270.5571    784.66458    9.2234773    9.2234773    9.2234773    55.206285 
   14200    296.38234   -10510.398            0   -9627.8222   -2215.7207    783.94138    9.2206428    9.2206428    9.2206428    34.158572 
   14300    287.85627     -10488.4            0   -9631.2127    21660.287    783.19418    9.2177123    9.2177123    9.2177123    48.658249 
   14400    302.00438   -10534.504            0   -9635.1865    9648.0625    782.85101    9.2163658    9.2163658    9.2163658    48.112917 
   14500    302.03573   -10536.365            0   -9636.9539     21.64272    782.72008     9.215852     9.215852     9.215852    43.540477 
   14600    298.17853   -10525.903            0    -9637.978    5539.6732    782.73035    9.2158923    9.2158923    9.2158923    50.712357 
   14700    288.02882   -10495.816            0   -9638.1155    16777.864    783.13784    9.2174913    9.2174913    9.2174913    46.555263 
   14800    286.72601   -10491.014            0   -9637.1934    7021.2947     783.7881    9.2200418    9.2200418    9.2200418    49.995303 
   14900    284.59989   -10481.013            0   -9633.5234    -10472.27    784.42984    9.2225574    9.2225574    9.2225574    55.525159 
   15000    300.79666   -10525.099            0   -9629.3778   -6648.5615    784.67624     9.223523     9.223523     9.223523    38.234403 
Loop time of 21.7058 on 16 procs for 1000 steps with 1000 atoms

Performance: 3.981 ns/day, 6.029 hours/ns, 46.071 timesteps/s
94.7% CPU use with 16 MPI tasks x no OpenMP threads

MPI task timing breakdown:
Section |  min time  |  avg time  |  max time  |%varavg| %total
---------------------------------------------------------------
Pair    | 1.7223     | 1.8769     | 2.5951     |  14.5 |  8.65
Neigh   | 0.60001    | 0.64832    | 0.85352    |   7.0 |  2.99
Comm    | 0.53047    | 1.4537     | 1.6564     |  21.1 |  6.70
Output  | 11.964     | 12.325     | 17.691     |  39.5 | 56.78
Modify  | 0.027016   | 5.394      | 5.7557     |  59.7 | 24.85
Other   |            | 0.007329   |            |       |  0.03

Nlocal:    62.5 ave 67 max 58 min
Histogram: 2 2 0 1 4 0 3 1 1 2
Nghost:    1856.75 ave 1891 max 1813 min
Histogram: 1 0 4 0 0 3 2 3 0 3
Neighs:    0 ave 0 max 0 min
Histogram: 16 0 0 0 0 0 0 0 0 0
FullNghs:  18806.6 ave 20356 max 17352 min
Histogram: 3 1 0 2 3 1 2 1 0 3

Total # of neighbors = 300906
Ave neighs/atom = 300.906
Neighbor list builds = 1000
Dangerous builds not checked
Setting up Verlet run ...
  Unit style    : real
  Current step  : 15000
  Time step     : 1
Per MPI rank memory allocation (min/avg/max) = 4.577 | 4.578 | 4.58 Mbytes
Step Temp E_pair E_mol TotEng Press Volume Lx Ly Lz S/CPU 
   15000    300.79666   -10525.099            0   -9629.3778   -6648.5615    784.67624     9.223523     9.223523     9.223523            0 
   15100    295.69816    -10501.22            0    -9620.681     -18431.8    784.31771     9.222118     9.222118     9.222118     46.80894 
   15200     293.3269    -10480.89            0   -9607.4124    5931.9297    783.50914    9.2189478    9.2189478    9.2189478    44.004375 
   15300    298.24055   -10477.956            0   -9589.8462   -12461.381    782.63115     9.215503     9.215503     9.215503     47.49546 
   15400    300.29185   -10466.442            0   -9572.2245   -12257.513    781.59807    9.2114463    9.2114463    9.2114463    59.334666 
   15500    306.67277   -10472.387            0   -9559.1674    2866.4004    780.15173    9.2057609    9.2057609    9.2057609    36.247673 
   15600    304.84968   -10458.445            0   -9550.6548    2717.7678    778.78397    9.2003779    9.2003779    9.2003779     57.45893 
   15700    313.61157   -10480.241            0   -9546.3588    3594.7062    777.83719    9.1966481    9.1966481    9.1966481    34.692477 
   15800    299.45074   -10435.325            0   -9543.6122    9065.8461     777.2519    9.1943408    9.1943408    9.1943408     42.66782 
   15900     314.0505   -10479.777            0   -9544.5879    27250.233    777.04702    9.1935329    9.1935329    9.1935329    48.213306 
   16000    308.34885   -10466.567            0   -9548.3567    16482.084    777.80506    9.1965214    9.1965214    9.1965214    54.499186 
Loop time of 21.834 on 16 procs for 1000 steps with 1000 atoms

Performance: 3.957 ns/day, 6.065 hours/ns, 45.800 timesteps/s
94.7% CPU use with 16 MPI tasks x no OpenMP threads

MPI task timing breakdown:
Section |  min time  |  avg time  |  max time  |%varavg| %total
---------------------------------------------------------------
Pair    | 1.7058     | 1.8991     | 2.8273     |  19.3 |  8.70
Neigh   | 0.60055    | 0.6493     | 0.9134     |   9.5 |  2.97
Comm    | 0.3412     | 1.5327     | 1.7541     |  27.6 |  7.02
Output  | 11.866     | 12.235     | 17.718     |  40.5 | 56.04
Modify  | 0.025245   | 5.5105     | 5.8803     |  60.3 | 25.24
Other   |            | 0.007356   |            |       |  0.03

Nlocal:    62.5 ave 68 max 60 min
Histogram: 4 4 2 0 0 2 2 1 0 1
Nghost:    1863.44 ave 1889 max 1843 min
Histogram: 1 1 2 4 2 3 0 1 1 1
Neighs:    0 ave 0 max 0 min
Histogram: 16 0 0 0 0 0 0 0 0 0
FullNghs:  18958.4 ave 20714 max 18148 min
Histogram: 6 2 1 1 2 0 2 1 0 1

Total # of neighbors = 303334
Ave neighs/atom = 303.334
Neighbor list builds = 1000
Dangerous builds not checked
Setting up Verlet run ...
  Unit style    : real
  Current step  : 16000
  Time step     : 1
Per MPI rank memory allocation (min/avg/max) = 4.577 | 4.578 | 4.58 Mbytes
Step Temp E_pair E_mol TotEng Press Volume Lx Ly Lz S/CPU 
   16000    308.34885   -10466.567            0   -9548.3567    16482.084    777.80506    9.1965214    9.1965214    9.1965214            0 
   16100    304.71904   -10461.906            0   -9554.5051     6985.459    779.68242    9.2039146    9.2039146    9.2039146    41.710903 
   16200    305.30375   -10470.953            0   -9561.8102    17229.289    782.29206    9.2141719    9.2141719    9.2141719    51.502171 
   16300    293.53543   -10444.684            0   -9570.5858    -6719.421    785.29841    9.2259601    9.2259601    9.2259601    35.709065 
   16400    305.15636    -10488.01            0   -9579.3063   -875.65967    787.98525    9.2364701    9.2364701    9.2364701    37.645481 
   16500    292.85098   -10459.208            0   -9587.1482   -17551.415    790.03355    9.2444663    9.2444663    9.2444663    40.348818 
   16600    303.89526   -10500.263            0   -9595.3144   -11161.839    791.22936    9.2491282    9.2491282    9.2491282     54.33579 
   16700    312.62939   -10533.616            0   -9602.6587   -6461.1089    791.64518    9.2507482    9.2507482    9.2507482    59.908541 
   16800    306.17079   -10518.306            0   -9606.5812    6099.7443    791.43783    9.2499404    9.2499404    9.2499404    41.925722 
   16900    297.87762   -10498.516            0   -9611.4876    3157.9578    791.07855    9.2485405    9.2485405    9.2485405    45.164931 
   17000    294.06751    -10490.61            0   -9614.9275   -5213.5255    790.72686    9.2471698    9.2471698    9.2471698    49.344907 
Loop time of 22.4098 on 16 procs for 1000 steps with 1000 atoms

Performance: 3.855 ns/day, 6.225 hours/ns, 44.623 timesteps/s
94.7% CPU use with 16 MPI tasks x no OpenMP threads

MPI task timing breakdown:
Section |  min time  |  avg time  |  max time  |%varavg| %total
---------------------------------------------------------------
Pair    | 1.6992     | 1.8651     | 2.7872     |  18.6 |  8.32
Neigh   | 0.60046    | 0.64946    | 0.9233     |   9.5 |  2.90
Comm    | 0.30661    | 1.5018     | 1.717      |  26.8 |  6.70
Output  | 12.4       | 12.776     | 18.358     |  40.3 | 57.01
Modify  | 0.025527   | 5.6105     | 5.9871     |  60.9 | 25.04
Other   |            | 0.007315   |            |       |  0.03

Nlocal:    62.5 ave 68 max 56 min
Histogram: 1 0 1 2 2 4 2 2 1 1
Nghost:    1837.25 ave 1850 max 1818 min
Histogram: 1 0 2 2 0 2 2 1 3 3
Neighs:    0 ave 0 max 0 min
Histogram: 16 0 0 0 0 0 0 0 0 0
FullNghs:  18676.2 ave 20209 max 16628 min
Histogram: 1 0 1 2 2 1 4 3 1 1

Total # of neighbors = 298820
Ave neighs/atom = 298.82
Neighbor list builds = 1000
Dangerous builds not checked
Setting up Verlet run ...
  Unit style    : real
  Current step  : 17000
  Time step     : 1
Per MPI rank memory allocation (min/avg/max) = 4.577 | 4.578 | 4.58 Mbytes
Step Temp E_pair E_mol TotEng Press Volume Lx Ly Lz S/CPU 
   17000    294.06751    -10490.61            0   -9614.9275   -5213.5255    790.72686    9.2471698    9.2471698    9.2471698            0 
   17100    288.13922   -10475.742            0   -9617.7125   -12920.387    790.15597    9.2449438    9.2449438    9.2449438    41.544312 
   17200    296.63919   -10502.716            0   -9619.3748    4109.9438    789.39101    9.2419595    9.2419595    9.2419595    50.835989 
   17300    295.64544    -10500.22            0   -9619.8384    8941.6739    788.48693    9.2384299    9.2384299    9.2384299    51.301764 
   17400    291.71684   -10486.151            0   -9617.4682    371.52179    787.57794    9.2348784    9.2348784    9.2348784    49.692444 
   17500    303.45456   -10518.875            0   -9615.2392    -2746.258      786.639     9.231207     9.231207     9.231207    59.012398 
   17600    296.49121   -10492.893            0   -9609.9931    3148.1528    785.34774    9.2261533    9.2261533    9.2261533    56.506399 
   17700    299.78609   -10496.422            0   -9603.7102    9785.0755    784.27044    9.2219327    9.2219327    9.2219327    33.991898 
   17800    295.66487   -10474.537            0   -9594.0975   -8161.6953    783.63934    9.2194584    9.2194584    9.2194584    60.930728 
   17900    295.37235     -10460.6            0   -9581.0313   -1313.4623    783.00018    9.2169512    9.2169512    9.2169512    56.445005 
   18000    311.48881    -10493.79            0   -9566.2299    3598.0098    782.29557    9.2141856    9.2141856    9.2141856    45.265489 
Loop time of 20.364 on 16 procs for 1000 steps with 1000 atoms

Performance: 4.243 ns/day, 5.657 hours/ns, 49.106 timesteps/s
94.8% CPU use with 16 MPI tasks x no OpenMP threads

MPI task timing breakdown:
Section |  min time  |  avg time  |  max time  |%varavg| %total
---------------------------------------------------------------
Pair    | 1.7062     | 1.8574     | 2.6551     |  16.1 |  9.12
Neigh   | 0.60741    | 0.64541    | 0.87215    |   7.9 |  3.17
Comm    | 0.46838    | 1.4919     | 1.6784     |  23.1 |  7.33
Output  | 10.676     | 11.033     | 16.334     |  41.2 | 54.18
Modify  | 0.025529   | 5.3295     | 5.6877     |  59.3 | 26.17
Other   |            | 0.007279   |            |       |  0.04

Nlocal:    62.5 ave 69 max 58 min
Histogram: 1 2 3 2 3 3 1 0 0 1
Nghost:    1855.06 ave 1868 max 1837 min
Histogram: 1 0 1 2 3 2 0 3 0 4
Neighs:    0 ave 0 max 0 min
Histogram: 16 0 0 0 0 0 0 0 0 0
FullNghs:  18886.6 ave 21049 max 17346 min
Histogram: 1 2 3 0 5 3 1 0 0 1

Total # of neighbors = 302186
Ave neighs/atom = 302.186
Neighbor list builds = 1000
Dangerous builds not checked
Setting up Verlet run ...
  Unit style    : real
  Current step  : 18000
  Time step     : 1
Per MPI rank memory allocation (min/avg/max) = 4.577 | 4.578 | 4.58 Mbytes
Step Temp E_pair E_mol TotEng Press Volume Lx Ly Lz S/CPU 
   18000    311.48881    -10493.79            0   -9566.2299    3598.0098    782.29557    9.2141856    9.2141856    9.2141856            0 
   18100    314.87356    -10487.75            0   -9550.1098    21930.213    782.13718    9.2135637    9.2135637    9.2135637    58.746756 
   18200     300.6646   -10431.947            0   -9536.6187    2633.6966    782.61253    9.2154299    9.2154299    9.2154299    42.311682 
   18300    313.01069   -10460.943            0   -9528.8506    2845.0289    783.53169    9.2190362    9.2190362    9.2190362    38.207065 
   18400    316.47227   -10468.019            0   -9525.6186    16424.097    784.92066    9.2244806    9.2244806    9.2244806    47.994241 
   18500    312.38992   -10454.343            0   -9524.0988    1837.0321    786.93693    9.2323723    9.2323723    9.2323723    43.937923 
   18600    310.29614   -10450.449            0   -9526.4405   -9714.9491    789.46439    9.2422458    9.2422458    9.2422458     46.41474 
   18700    313.13041   -10461.536            0   -9529.0869   -10188.992    792.22672    9.2530128    9.2530128    9.2530128    54.256949 
   18800    321.76134   -10490.678            0   -9532.5279   -9396.0252    794.88166    9.2633376    9.2633376    9.2633376    48.329039 
   18900    286.06145   -10386.609            0   -9534.7665   -5720.2958    797.09272    9.2719187    9.2719187    9.2719187    52.300841 
   19000    311.27758   -10468.542            0     -9541.61   -12465.032      799.029    9.2794203    9.2794203    9.2794203    57.645595 
Loop time of 20.756 on 16 procs for 1000 steps with 1000 atoms

Performance: 4.163 ns/day, 5.766 hours/ns, 48.179 timesteps/s
94.7% CPU use with 16 MPI tasks x no OpenMP threads

MPI task timing breakdown:
Section |  min time  |  avg time  |  max time  |%varavg| %total
---------------------------------------------------------------
Pair    | 1.709      | 1.8637     | 2.5933     |  14.6 |  8.98
Neigh   | 0.60912    | 0.64815    | 0.85952    |   7.2 |  3.12
Comm    | 0.53815    | 1.4784     | 1.6709     |  21.1 |  7.12
Output  | 11.456     | 11.789     | 16.731     |  37.2 | 56.80
Modify  | 0.025245   | 4.9695     | 5.3035     |  57.3 | 23.94
Other   |            | 0.0073     |            |       |  0.04

Nlocal:    62.5 ave 70 max 57 min
Histogram: 2 1 0 6 2 1 2 1 0 1
Nghost:    1828.25 ave 1844 max 1809 min
Histogram: 2 0 2 1 3 0 3 1 1 3
Neighs:    0 ave 0 max 0 min
Histogram: 16 0 0 0 0 0 0 0 0 0
FullNghs:  18459.5 ave 20630 max 16730 min
Histogram: 2 1 1 4 2 1 2 2 0 1

Total # of neighbors = 295352
Ave neighs/atom = 295.352
Neighbor list builds = 1000
Dangerous builds not checked
Setting up Verlet run ...
  Unit style    : real
  Current step  : 19000
  Time step     : 1
Per MPI rank memory allocation (min/avg/max) = 4.577 | 4.578 | 4.58 Mbytes
Step Temp E_pair E_mol TotEng Press Volume Lx Ly Lz S/CPU 
   19000    311.27758   -10468.542            0     -9541.61   -12465.032      799.029    9.2794203    9.2794203    9.2794203            0 
   19100    298.49995   -10435.454            0   -9546.5718    -5602.575    800.47281    9.2850061    9.2850061    9.2850061     40.67855 
   19200    298.35288   -10441.869            0   -9553.4252   -6304.7789     801.3264    9.2883054    9.2883054    9.2883054    53.681164 
   19300    312.77362   -10492.141            0   -9560.7546   -22739.947    801.58626    9.2893092    9.2893092    9.2893092    37.714967 
   19400    312.50498   -10497.689            0   -9567.1023   -1238.5423    800.32197    9.2844229    9.2844229    9.2844229    48.511028 
   19500    304.28582   -10479.357            0   -9573.2461   -21667.059    797.78612    9.2746065    9.2746065    9.2746065    61.390606 
   19600     300.8958   -10475.367            0   -9579.3504   -17227.087    794.11798    9.2603701    9.2603701    9.2603701    56.443214 
   19700    306.82602   -10498.771            0   -9585.0959    1449.1103    789.46235    9.2422378    9.2422378    9.2422378    50.938224 
   19800    314.02276   -10524.768            0   -9589.6616    1560.2081    784.48772    9.2227843    9.2227843    9.2227843    55.020608 
   19900    302.65657    -10493.94            0   -9592.6807    12750.382    779.64074    9.2037506    9.2037506    9.2037506    58.571623 
   20000    305.71068   -10505.827            0   -9595.4729    10060.488    775.43054    9.1871534    9.1871534    9.1871534    46.459737 
Loop time of 20.075 on 16 procs for 1000 steps with 1000 atoms

Performance: 4.304 ns/day, 5.576 hours/ns, 49.813 timesteps/s
94.7% CPU use with 16 MPI tasks x no OpenMP threads

MPI task timing breakdown:
Section |  min time  |  avg time  |  max time  |%varavg| %total
---------------------------------------------------------------
Pair    | 1.6614     | 1.8135     | 2.7262     |  18.4 |  9.03
Neigh   | 0.59298    | 0.63919    | 0.90422    |   8.9 |  3.18
Comm    | 0.30858    | 1.4855     | 1.6823     |  26.1 |  7.40
Output  | 10.717     | 11.057     | 16.102     |  39.2 | 55.08
Modify  | 0.024983   | 5.0731     | 5.4141     |  57.9 | 25.27
Other   |            | 0.007218   |            |       |  0.04

Nlocal:    62.5 ave 67 max 55 min
Histogram: 1 0 1 2 2 3 0 0 2 5
Nghost:    1869.38 ave 1893 max 1856 min
Histogram: 3 2 2 2 4 1 1 0 0 1
Neighs:    0 ave 0 max 0 min
Histogram: 16 0 0 0 0 0 0 0 0 0
FullNghs:  19045.9 ave 20470 max 16793 min
Histogram: 1 1 0 3 2 1 1 1 1 5

Total # of neighbors = 304734
Ave neighs/atom = 304.734
Neighbor list builds = 1000
Dangerous builds not checked
Setting up Verlet run ...
  Unit style    : real
  Current step  : 20000
  Time step     : 1
Per MPI rank memory allocation (min/avg/max) = 4.577 | 4.578 | 4.58 Mbytes
Step Temp E_pair E_mol TotEng Press Volume Lx Ly Lz S/CPU 
   20000    305.71068   -10505.827            0   -9595.4729    10060.488    775.43054    9.1871534    9.1871534    9.1871534            0 
   20100    296.69017   -10481.235            0   -9597.7421    16139.184     772.0448    9.1737627    9.1737627    9.1737627    47.068475 
   20200    309.46546   -10522.698            0   -9601.1631    26229.497    770.00541    9.1656779    9.1656779    9.1656779     50.06855 
   20300    300.06995   -10496.243            0   -9602.6858    20365.942     769.3472    9.1630655    9.1630655    9.1630655    55.336735 
   20400    303.14669   -10508.518            0   -9605.7992    22916.565    770.09536    9.1660348    9.1660348    9.1660348    54.248359 
   20500    294.73303   -10484.748            0   -9607.0829    6984.5606    772.28944    9.1747316    9.1747316    9.1747316    43.443649 
   20600    298.86438   -10500.964            0   -9610.9974    21732.265    775.41084    9.1870756    9.1870756    9.1870756     42.39073 
   20700    302.66474   -10514.126            0   -9612.8417    -7191.677    779.38281    9.2027355    9.2027355    9.2027355     42.31733 
   20800    295.21652    -10492.01            0   -9612.9052    -7656.695    783.44481    9.2186955    9.2186955    9.2186955    42.269878 
   20900     297.4296   -10498.451            0   -9612.7565   -3791.6786    787.19889    9.2333966    9.2333966    9.2333966    52.647764 
   21000    293.20181   -10483.407            0   -9610.3026   -624.62822     790.5307     9.246405     9.246405     9.246405    48.298973 
Loop time of 21.1319 on 16 procs for 1000 steps with 1000 atoms

Performance: 4.089 ns/day, 5.870 hours/ns, 47.322 timesteps/s
94.8% CPU use with 16 MPI tasks x no OpenMP threads

MPI task timing breakdown:
Section |  min time  |  avg time  |  max time  |%varavg| %total
---------------------------------------------------------------
Pair    | 1.7318     | 1.919      | 2.8768     |  19.7 |  9.08
Neigh   | 0.60526    | 0.65067    | 0.91163    |   9.2 |  3.08
Comm    | 0.36651    | 1.5848     | 1.8156     |  27.5 |  7.50
Output  | 11.391     | 11.741     | 16.941     |  39.2 | 55.56
Modify  | 0.027335   | 5.2286     | 5.5793     |  58.7 | 24.74
Other   |            | 0.007373   |            |       |  0.03

Nlocal:    62.5 ave 71 max 57 min
Histogram: 1 2 3 3 2 3 1 0 0 1
Nghost:    1849.12 ave 1863 max 1834 min
Histogram: 1 0 2 2 4 0 3 3 0 1
Neighs:    0 ave 0 max 0 min
Histogram: 16 0 0 0 0 0 0 0 0 0
FullNghs:  18656 ave 21330 max 16782 min
Histogram: 1 1 3 3 3 3 1 0 0 1

Total # of neighbors = 298496
Ave neighs/atom = 298.496
Neighbor list builds = 1000
Dangerous builds not checked
Setting up Verlet run ...
  Unit style    : real
  Current step  : 21000
  Time step     : 1
Per MPI rank memory allocation (min/avg/max) = 4.577 | 4.578 | 4.58 Mbytes
Step Temp E_pair E_mol TotEng Press Volume Lx Ly Lz S/CPU 
   21000    293.20181   -10483.407            0   -9610.3026   -624.62822     790.5307     9.246405     9.246405     9.246405            0 
   21100     306.7558   -10519.343            0   -9605.8769   -8197.3719    793.11203    9.2564582    9.2564582    9.2564582    43.247192 
   21200    291.46679    -10469.51            0   -9601.5721   -10204.547    794.47554    9.2617597    9.2617597    9.2617597    57.047361 
   21300    294.15561   -10471.529            0   -9595.5842   -21407.427    794.62746      9.26235      9.26235      9.26235    50.971867 
   21400     304.1101   -10495.101            0    -9589.513   -12835.414    793.35464     9.257402     9.257402     9.257402    48.981721 
   21500    304.83105   -10489.769            0   -9582.0337   -1552.0505    791.37595    9.2496993    9.2496993    9.2496993    53.934722 
   21600    301.92257   -10474.591            0   -9575.5175   -3403.7814    789.23527    9.2413516    9.2413516    9.2413516    56.003536 
   21700     311.1116   -10496.155            0    -9569.718   -4867.5792    787.24274    9.2335681    9.2335681    9.2335681    48.272969 
   21800    312.53308   -10495.817            0   -9565.1468    4696.6296    785.72945    9.2276478    9.2276478    9.2276478    53.012392 
   21900    311.15356   -10487.858            0   -9561.2954     21265.76    784.88834    9.2243539    9.2243539    9.2243539    53.408079 
   22000    309.15302   -10479.461            0   -9558.8556    18215.535    784.82624    9.2241107    9.2241107    9.2241107    45.910177 
Loop time of 19.7168 on 16 procs for 1000 steps with 1000 atoms

Performance: 4.382 ns/day, 5.477 hours/ns, 50.718 timesteps/s
94.8% CPU use with 16 MPI tasks x no OpenMP threads

MPI task timing breakdown:
Section |  min time  |  avg time  |  max time  |%varavg| %total
---------------------------------------------------------------
Pair    | 1.6881     | 1.8281     | 2.7305     |  17.8 |  9.27
Neigh   | 0.60015    | 0.63935    | 0.90369    |   8.8 |  3.24
Comm    | 0.34897    | 1.5148     | 1.6898     |  25.3 |  7.68
Output  | 10.271     | 10.614     | 15.7       |  40.3 | 53.83
Modify  | 0.024946   | 5.1134     | 5.4572     |  58.1 | 25.93
Other   |            | 0.007236   |            |       |  0.04

Nlocal:    62.5 ave 68 max 58 min
Histogram: 1 0 2 3 5 1 1 0 1 2
Nghost:    1862.81 ave 1884 max 1837 min
Histogram: 2 0 2 1 2 3 1 1 1 3
Neighs:    0 ave 0 max 0 min
Histogram: 16 0 0 0 0 0 0 0 0 0
FullNghs:  18816.4 ave 20557 max 17530 min
Histogram: 1 2 3 4 2 1 0 1 0 2

Total # of neighbors = 301062
Ave neighs/atom = 301.062
Neighbor list builds = 1000
Dangerous builds not checked
Setting up Verlet run ...
  Unit style    : real
  Current step  : 22000
  Time step     : 1
Per MPI rank memory allocation (min/avg/max) = 4.577 | 4.578 | 4.58 Mbytes
Step Temp E_pair E_mol TotEng Press Volume Lx Ly Lz S/CPU 
   22000    309.15302   -10479.461            0   -9558.8556    18215.535    784.82624    9.2241107    9.2241107    9.2241107            0 
   22100    295.95611   -10439.584            0   -9558.2773    5916.7082    785.24051    9.2257334    9.2257334    9.2257334    50.537387 
   22200    314.49487   -10499.716            0   -9563.2045   -8078.1677     785.6624    9.2273853    9.2273853    9.2273853    40.297069 
   22300     312.3921    -10500.62            0   -9570.3696   -14309.002      785.833    9.2280531    9.2280531    9.2280531    57.236613 
   22400    300.92675   -10480.596            0   -9584.4873   -4319.9225    785.70311    9.2275447    9.2275447    9.2275447    53.157249 
   22500     305.6025   -10513.244            0   -9603.2119   -11451.188    785.25294     9.225782     9.225782     9.225782    46.705649 
   22600    302.52734   -10520.565            0   -9619.6905   -2100.2532    784.33347    9.2221797    9.2221797    9.2221797    52.764952 
   22700    290.72152   -10498.159            0   -9632.4396   -1809.3323    782.87793    9.2164715    9.2164715    9.2164715    33.843064 
   22800    292.29911   -10512.569            0   -9642.1522   -6180.7092    781.28048    9.2101985    9.2101985    9.2101985    46.918257 
   22900    294.88152   -10528.061            0   -9649.9537   -9572.0686    779.76797    9.2042512    9.2042512    9.2042512    52.758373 
   23000    299.78942   -10549.248            0   -9656.5261    3362.9412    778.13972    9.1978402    9.1978402    9.1978402     43.76059 
Loop time of 21.3917 on 16 procs for 1000 steps with 1000 atoms

Performance: 4.039 ns/day, 5.942 hours/ns, 46.747 timesteps/s
94.7% CPU use with 16 MPI tasks x no OpenMP threads

MPI task timing breakdown:
Section |  min time  |  avg time  |  max time  |%varavg| %total
---------------------------------------------------------------
Pair    | 1.7114     | 1.8758     | 2.724      |  18.4 |  8.77
Neigh   | 0.59937    | 0.64782    | 0.89565    |   9.0 |  3.03
Comm    | 0.37886    | 1.4743     | 1.686      |  26.7 |  6.89
Output  | 11.998     | 12.336     | 17.36      |  36.9 | 57.67
Modify  | 0.024624   | 5.0501     | 5.3894     |  57.7 | 23.61
Other   |            | 0.007295   |            |       |  0.03

Nlocal:    62.5 ave 67 max 57 min
Histogram: 1 1 1 1 0 3 2 4 1 2
Nghost:    1863.06 ave 1882 max 1845 min
Histogram: 2 3 0 0 3 1 2 3 0 2
Neighs:    0 ave 0 max 0 min
Histogram: 16 0 0 0 0 0 0 0 0 0
FullNghs:  18963.4 ave 20305 max 17174 min
Histogram: 1 1 1 1 3 0 2 4 1 2

Total # of neighbors = 303414
Ave neighs/atom = 303.414
Neighbor list builds = 1000
Dangerous builds not checked
Setting up Verlet run ...
  Unit style    : real
  Current step  : 23000
  Time step     : 1
Per MPI rank memory allocation (min/avg/max) = 4.577 | 4.578 | 4.58 Mbytes
Step Temp E_pair E_mol TotEng Press Volume Lx Ly Lz S/CPU 
   23000    299.78942   -10549.248            0   -9656.5261    3362.9412    778.13972    9.1978402    9.1978402    9.1978402            0 
   23100     293.4404   -10534.515            0   -9660.6993    6125.3463    776.76213    9.1924092    9.1924092    9.1924092    54.686874 
   23200    289.09157   -10525.142            0   -9664.2762    3435.2173    775.99897    9.1893977    9.1893977    9.1893977    51.939665 
   23300    293.97978   -10540.417            0   -9664.9955    5795.2972    775.74867    9.1884096    9.1884096    9.1884096    46.029225 
   23400    303.79702   -10570.739            0   -9666.0829    4044.5296    775.88697    9.1889556    9.1889556    9.1889556    63.380568 
   23500    287.86739   -10521.108            0   -9663.8883    3489.7117    776.35431    9.1908002    9.1908002    9.1908002    55.850025 
   23600    299.50044   -10553.094            0   -9661.2331     22288.22    777.11104    9.1937853    9.1937853    9.1937853    31.934713 
   23700    296.33171   -10537.759            0   -9655.3333   -3702.7665    778.38083    9.1987901    9.1987901    9.1987901     56.47069 
   23800    295.69049   -10529.184            0   -9648.6685    3396.0259    780.18126    9.2058771    9.2058771    9.2058771    53.342412 
   23900    294.42821   -10516.767            0   -9640.0097    14188.921     782.3139    9.2142576    9.2142576    9.2142576    40.138834 
   24000    300.35965   -10524.975            0   -9630.5555   -1273.4191    784.41057    9.2224819    9.2224819    9.2224819    47.535354 
Loop time of 20.6667 on 16 procs for 1000 steps with 1000 atoms

Performance: 4.181 ns/day, 5.741 hours/ns, 48.387 timesteps/s
94.7% CPU use with 16 MPI tasks x no OpenMP threads

MPI task timing breakdown:
Section |  min time  |  avg time  |  max time  |%varavg| %total
---------------------------------------------------------------
Pair    | 1.7625     | 1.8948     | 2.8231     |  17.8 |  9.17
Neigh   | 0.61134    | 0.64724    | 0.89439    |   8.1 |  3.13
Comm    | 0.32296    | 1.4974     | 1.6643     |  25.2 |  7.25
Output  | 10.78      | 11.147     | 16.592     |  42.1 | 53.94
Modify  | 0.025113   | 5.4731     | 5.841      |  60.1 | 26.48
Other   |            | 0.007395   |            |       |  0.04

Nlocal:    62.5 ave 66 max 58 min
Histogram: 1 1 3 2 0 1 1 1 4 2
Nghost:    1862.38 ave 1868 max 1851 min
Histogram: 1 1 1 0 1 3 0 2 1 6
Neighs:    0 ave 0 max 0 min
Histogram: 16 0 0 0 0 0 0 0 0 0
FullNghs:  18817.1 ave 19900 max 17392 min
Histogram: 1 2 2 1 2 0 1 1 1 5

Total # of neighbors = 301074
Ave neighs/atom = 301.074
Neighbor list builds = 1000
Dangerous builds not checked
Setting up Verlet run ...
  Unit style    : real
  Current step  : 24000
  Time step     : 1
Per MPI rank memory allocation (min/avg/max) = 4.577 | 4.578 | 4.58 Mbytes
Step Temp E_pair E_mol TotEng Press Volume Lx Ly Lz S/CPU 
   24000    300.35965   -10524.975            0   -9630.5555   -1273.4191    784.41057    9.2224819    9.2224819    9.2224819            0 
   24100    298.95975   -10510.883            0   -9620.6323   -11068.396    786.15437    9.2293109    9.2293109    9.2293109    62.149277 
   24200    297.18607   -10495.203            0   -9610.2332   -6640.5634    787.40453    9.2342006    9.2342006    9.2342006    50.635941 
   24300     302.7658   -10501.276            0   -9599.6911   -6310.4551    788.15278    9.2371246    9.2371246    9.2371246    42.049951 
   24400    304.48242    -10499.49            0   -9592.7929   -1069.0861    789.09381    9.2407994    9.2407994    9.2407994    43.343095 
   24500    304.73094   -10494.964            0   -9587.5271    6660.8431    790.06752    9.2445988    9.2445988    9.2445988    35.514949 
   24600    302.14722   -10482.492            0   -9582.7489   -6139.5225    791.10656    9.2486497    9.2486497    9.2486497    57.453023 
   24700     293.2523   -10451.581            0   -9578.3252   -11907.848       792.31     9.253337     9.253337     9.253337    48.335733 
   24800    307.52348   -10491.949            0   -9576.1967   -10075.148    793.11844    9.2564832    9.2564832    9.2564832    41.383454 
   24900    304.81303   -10483.356            0   -9575.6751    -6443.797    793.52335    9.2580581    9.2580581    9.2580581    51.020431 
   25000    297.37403   -10462.104            0   -9576.5747    -4347.304    793.67213    9.2586367    9.2586367    9.2586367    44.690227 
Loop time of 21.5084 on 16 procs for 1000 steps with 1000 atoms

Performance: 4.017 ns/day, 5.975 hours/ns, 46.493 timesteps/s
94.7% CPU use with 16 MPI tasks x no OpenMP threads

MPI task timing breakdown:
Section |  min time  |  avg time  |  max time  |%varavg| %total
---------------------------------------------------------------
Pair    | 1.6543     | 1.8315     | 2.6989     |  17.5 |  8.52
Neigh   | 0.60076    | 0.64146    | 0.89994    |   9.0 |  2.98
Comm    | 0.30148    | 1.4259     | 1.6444     |  25.7 |  6.63
Output  | 12.111     | 12.456     | 17.575     |  37.5 | 57.91
Modify  | 0.024533   | 5.1467     | 5.4933     |  58.3 | 23.93
Other   |            | 0.007271   |            |       |  0.03

Nlocal:    62.5 ave 67 max 58 min
Histogram: 1 3 0 3 0 2 2 3 1 1
Nghost:    1842.25 ave 1856 max 1827 min
Histogram: 1 0 1 1 3 5 3 0 1 1
Neighs:    0 ave 0 max 0 min
Histogram: 16 0 0 0 0 0 0 0 0 0
FullNghs:  18606.5 ave 20100 max 17361 min
Histogram: 4 0 2 1 1 1 4 1 1 1

Total # of neighbors = 297704
Ave neighs/atom = 297.704
Neighbor list builds = 1000
Dangerous builds not checked
Setting up Verlet run ...
  Unit style    : real
  Current step  : 25000
  Time step     : 1
Per MPI rank memory allocation (min/avg/max) = 4.577 | 4.578 | 4.58 Mbytes
Step Temp E_pair E_mol TotEng Press Volume Lx Ly Lz S/CPU 
   25000    297.37403   -10462.104            0   -9576.5747    -4347.304    793.67213    9.2586367    9.2586367    9.2586367            0 
   25100    305.76075   -10487.832            0    -9577.329    -15399.94    793.09314    9.2563848    9.2563848    9.2563848    40.686303 
   25200    301.56604   -10476.959            0   -9578.9472   -13397.954    791.63748    9.2507182    9.2507182    9.2507182    34.166378 
   25300    303.69841   -10487.003            0    -9582.641   -3428.5465    789.26038    9.2414496    9.2414496    9.2414496    40.511813 
   25400     306.2264   -10499.416            0   -9587.5262   -11476.373    786.33249    9.2300079    9.2300079    9.2300079    45.257901 
   25500    304.87665   -10500.865            0   -9592.9941     4500.244    783.04197    9.2171152    9.2171152    9.2171152    54.123566 
   25600    299.56664   -10492.174            0   -9600.1154   -2443.7339    780.17225    9.2058416    9.2058416    9.2058416    56.236628 
   25700    303.92656   -10512.246            0   -9607.2047     19357.81    778.10987    9.1977226    9.1977226    9.1977226    42.052846 
   25800    304.89197   -10525.708            0   -9617.7916    11949.686     777.2386    9.1942884    9.1942884    9.1942884    42.401284 
   25900     294.3544   -10504.218            0   -9627.6811    9788.9088    777.67831    9.1960219    9.1960219    9.1960219    41.887853 
   26000    299.71628   -10532.286            0   -9639.7825    15646.451    778.87263    9.2007271    9.2007271    9.2007271    47.381108 
Loop time of 22.9228 on 16 procs for 1000 steps with 1000 atoms

Performance: 3.769 ns/day, 6.367 hours/ns, 43.625 timesteps/s
94.6% CPU use with 16 MPI tasks x no OpenMP threads

MPI task timing breakdown:
Section |  min time  |  avg time  |  max time  |%varavg| %total
---------------------------------------------------------------
Pair    | 1.6751     | 1.8399     | 2.675      |  16.7 |  8.03
Neigh   | 0.59763    | 0.63674    | 0.87494    |   8.1 |  2.78
Comm    | 0.29943    | 1.3713     | 1.5716     |  24.8 |  5.98
Output  | 12.966     | 13.349     | 19.04      |  40.2 | 58.24
Modify  | 0.024584   | 5.7184     | 6.103      |  61.5 | 24.95
Other   |            | 0.007231   |            |       |  0.03

Nlocal:    62.5 ave 68 max 58 min
Histogram: 2 2 2 1 2 0 2 2 0 3
Nghost:    1859.94 ave 1883 max 1842 min
Histogram: 3 2 1 2 1 3 0 1 2 1
Neighs:    0 ave 0 max 0 min
Histogram: 16 0 0 0 0 0 0 0 0 0
FullNghs:  18967.1 ave 20818 max 17447 min
Histogram: 2 2 3 2 0 1 3 0 1 2

Total # of neighbors = 303474
Ave neighs/atom = 303.474
Neighbor list builds = 1000
Dangerous builds not checked
Setting up Verlet run ...
  Unit style    : real
  Current step  : 26000
  Time step     : 1
Per MPI rank memory allocation (min/avg/max) = 4.577 | 4.578 | 4.58 Mbytes
Step Temp E_pair E_mol TotEng Press Volume Lx Ly Lz S/CPU 
   26000    299.71628   -10532.286            0   -9639.7825    15646.451    778.87263    9.2007271    9.2007271    9.2007271            0 
   26100    296.68448   -10532.998            0    -9649.522     8260.017    780.67347    9.2078126    9.2078126    9.2078126    53.964228 
   26200    299.11694   -10549.213            0   -9658.4934   -7035.9265    782.53953    9.2151433    9.2151433    9.2151433    47.492785 
   26300    294.03612   -10540.355            0   -9664.7658   -12520.795    783.95127    9.2206815    9.2206815    9.2206815    49.901297 
   26400     288.1366   -10525.518            0    -9667.496   -10699.114    784.86302    9.2242547    9.2242547    9.2242547    34.074246 
   26500    295.51656    -10548.41            0   -9668.4116   -19188.643     785.1912    9.2255403    9.2255403    9.2255403    38.232425 
   26600    291.34383   -10534.814            0   -9667.2417    -3448.543    784.63618     9.223366     9.223366     9.223366    49.010949 
   26700    282.49388   -10506.477            0   -9665.2583   -8556.4239    783.30512    9.2181476    9.2181476    9.2181476    48.025334 
   26800    306.27787   -10575.159            0   -9663.1154    12748.075    781.46541    9.2109252    9.2109252    9.2109252    39.338816 
   26900    304.64994   -10566.669            0   -9659.4732    6223.0369    779.85348    9.2045877    9.2045877    9.2045877    55.765077 
   27000    299.70208   -10549.124            0   -9656.6622    2261.2608    778.50477    9.1992783    9.1992783    9.1992783    46.700432 
Loop time of 22.1122 on 16 procs for 1000 steps with 1000 atoms

Performance: 3.907 ns/day, 6.142 hours/ns, 45.224 timesteps/s
94.6% CPU use with 16 MPI tasks x no OpenMP threads

MPI task timing breakdown:
Section |  min time  |  avg time  |  max time  |%varavg| %total
---------------------------------------------------------------
Pair    | 1.7117     | 1.8497     | 2.6716     |  15.9 |  8.37
Neigh   | 0.60549    | 0.63849    | 0.87112    |   7.6 |  2.89
Comm    | 0.32161    | 1.3752     | 1.5449     |  23.5 |  6.22
Output  | 12.823     | 13.163     | 18.214     |  35.9 | 59.53
Modify  | 0.025287   | 5.0787     | 5.4205     |  57.9 | 22.97
Other   |            | 0.007245   |            |       |  0.03

Nlocal:    62.5 ave 68 max 55 min
Histogram: 1 0 1 1 2 2 5 3 0 1
Nghost:    1864.81 ave 1885 max 1838 min
Histogram: 1 0 1 2 3 1 3 1 3 1
Neighs:    0 ave 0 max 0 min
Histogram: 16 0 0 0 0 0 0 0 0 0
FullNghs:  18957.5 ave 20543 max 16707 min
Histogram: 1 0 1 1 2 2 5 0 3 1

Total # of neighbors = 303320
Ave neighs/atom = 303.32
Neighbor list builds = 1000
Dangerous builds not checked
Setting up Verlet run ...
  Unit style    : real
  Current step  : 27000
  Time step     : 1
Per MPI rank memory allocation (min/avg/max) = 4.577 | 4.578 | 4.58 Mbytes
Step Temp E_pair E_mol TotEng Press Volume Lx Ly Lz S/CPU 
   27000    299.70208   -10549.124            0   -9656.6622    2261.2608    778.50477    9.1992783    9.1992783    9.1992783            0 
   27100    291.08417   -10518.095            0   -9651.2959      12027.2    777.53817    9.1954695    9.1954695    9.1954695     44.59932 
   27200    296.85929   -10529.876            0   -9645.8793    18254.963    777.85248    9.1967083    9.1967083    9.1967083    52.006261 
   27300    295.94028   -10521.859            0   -9640.5993    2495.3354    779.20444    9.2020334    9.2020334    9.2020334     44.50195 
   27400    288.42991   -10491.926            0   -9633.0305      1525.44    780.81912    9.2083852    9.2083852    9.2083852    38.206684 
   27500    292.54272   -10496.032            0   -9624.8899   -7636.6953    782.58062    9.2153046    9.2153046    9.2153046    44.011379 
   27600    311.23214    -10543.66            0    -9616.864   -13498.735    783.82398    9.2201825    9.2201825    9.2201825    36.007084 
   27700    307.17662   -10523.578            0   -9608.8582   -925.28772     784.3622    9.2222924    9.2222924    9.2222924    41.254966 
   27800    299.67931   -10493.101            0   -9600.7068   -3280.9334    784.93078    9.2245202    9.2245202    9.2245202     49.62058 
   27900    308.63009   -10513.537            0   -9594.4893   -712.13577    785.46389    9.2266081    9.2266081    9.2266081    61.050831 
   28000    299.73516   -10480.233            0   -9587.6725    7411.1521    785.97104    9.2285935    9.2285935    9.2285935     45.58867 
Loop time of 22.3496 on 16 procs for 1000 steps with 1000 atoms

Performance: 3.866 ns/day, 6.208 hours/ns, 44.743 timesteps/s
[...]
  518700    308.16028   -11202.853            0   -10285.205    18109.524    792.50538    9.2540975    9.2540975    9.2540975    52.678134 
  518800    306.44905   -11199.819            0   -10287.266    16113.206    791.79339    9.2513254    9.2513254    9.2513254     34.75283 
  518900    290.76467   -11157.165            0   -10291.317    10121.876    792.13479    9.2526549    9.2526549    9.2526549    54.205647 
  519000    302.04594   -11198.243            0   -10298.802     8097.267    793.44606    9.2577575    9.2577575    9.2577575    52.825185 
  519100    301.66114   -11206.229            0   -10307.934    6206.5366    795.46642    9.2656086    9.2656086    9.2656086    39.909809 
  519200    299.01597   -11208.896            0   -10318.477   -10032.176    797.74077    9.2744307    9.2744307    9.2744307    40.013534 
  519300    287.36213    -11185.04            0   -10329.325   -11796.076    799.80944    9.2824405    9.2824405    9.2824405    46.712322 
  519400    293.87947   -11215.002            0    -10339.88   -13567.234    800.97879    9.2869621    9.2869621    9.2869621    44.205996 
  519500    300.78123   -11244.342            0   -10348.667   -17005.011    800.82439    9.2863653    9.2863653    9.2863653    48.364282 
  519600     285.9241   -11206.392            0   -10354.959   -4073.2696    799.44023     9.281012     9.281012     9.281012    42.068007 
  519700    287.77546   -11216.817            0   -10359.871   -6707.0978    797.07097    9.2718343    9.2718343    9.2718343    39.051603 
  519800    303.21818   -11265.486            0   -10362.554    4722.5873    794.22253    9.2607765    9.2607765    9.2607765    46.150303 
  519900    301.70029   -11262.244            0   -10363.833    12602.854     791.6625    9.2508156    9.2508156    9.2508156    46.752521 
  520000    286.32413   -11214.255            0    -10361.63    26628.754    790.01618    9.2443986    9.2443986    9.2443986    51.706422 
  520100     299.9194   -11253.008            0   -10359.899    19355.903    789.69118    9.2431307    9.2431307    9.2431307    51.116244 
  520200    306.15011   -11270.057            0   -10358.395    12843.105    790.86981     9.247727     9.247727     9.247727    44.181559 
  520300    292.37649   -11225.613            0   -10354.965    5123.0742    793.44301    9.2577457    9.2577457    9.2577457    45.427037 
  520400    291.40535   -11218.365            0    -10350.61   -3737.5319    796.62045    9.2700871    9.2700871    9.2700871     53.41504 
  520500    289.13882    -11206.21            0   -10345.204   -15737.801    799.65872    9.2818574    9.2818574    9.2818574    34.293909 
  520600     288.7991   -11198.675            0   -10338.681   -16442.547    801.77976    9.2900566    9.2900566    9.2900566    50.275604 
  520700    297.62666   -11218.474            0   -10332.193   -14884.702    802.64082    9.2933811    9.2933811    9.2933811    43.846603 
  520800    286.59298   -11178.304            0   -10324.879   -19733.531    802.12678    9.2913968    9.2913968    9.2913968    36.574613 
  520900    304.45902   -11228.742            0   -10322.115   -5709.0616    800.18141    9.2838793    9.2838793    9.2838793      51.7742 
  521000    297.68006    -11204.64            0   -10318.199    -7150.276    797.40771    9.2731399    9.2731399    9.2731399    49.101601 
  521100     300.2306   -11208.821            0   -10314.786    8775.8755    794.38837     9.261421     9.261421     9.261421    36.660034 
  521200    300.28636   -11207.127            0   -10312.925    14359.955    791.88327    9.2516755    9.2516755    9.2516755    43.396378 
  521300    303.95454   -11217.815            0   -10312.691    17078.046    790.36261    9.2457496    9.2457496    9.2457496    38.248138 
  521400    315.09249    -11250.03            0   -10311.738    20722.196    790.16739    9.2449883    9.2449883    9.2449883    44.150855 
  521500    301.94977   -11210.349            0   -10311.194    15363.241    791.37396    9.2496916    9.2496916    9.2496916    54.480862 
  521600    305.11836   -11221.264            0   -10312.674    4681.2336    793.62003    9.2584341    9.2584341    9.2584341    37.883943 
  521700    306.16333   -11226.195            0   -10314.492    1034.2456    796.37734    9.2691441    9.2691441    9.2691441    46.362491 
  521800    309.16561   -11238.048            0   -10317.406   -11044.188    799.32516    9.2805666    9.2805666    9.2805666    42.118975 
  521900    302.89915   -11221.001            0   -10319.019   -14886.055    801.61106    9.2894051    9.2894051    9.2894051    44.176801 
  522000    291.70444   -11190.064            0   -10321.418   -20496.307    802.82333    9.2940854    9.2940854    9.2940854    35.987205 
  522100    303.39151   -11228.163            0   -10324.715   -23518.952    802.64386    9.2933928    9.2933928    9.2933928    40.461483 
  522200    296.14104   -11210.128            0    -10328.27   -16283.407    800.88155    9.2865863    9.2865863    9.2865863    50.232015 
  522300     292.5116   -11202.564            0   -10331.514     1540.589    797.87879    9.2749656    9.2749656    9.2749656    39.805639 
  522400    301.99374   -11234.586            0     -10335.3    9616.4724    794.33187    9.2612014    9.2612014    9.2612014    51.845245 
  522500     287.8113   -11195.478            0   -10338.426    19587.572    791.25712    9.2492363    9.2492363    9.2492363    35.514298 
  522600    295.46431   -11222.575            0   -10342.732    25243.472     789.4483     9.242183     9.242183     9.242183    61.720657 
  522700    292.82266   -11221.666            0    -10349.69      15804.1     789.2595    9.2414462    9.2414462    9.2414462    51.452182 
  522800    288.76187   -11217.995            0   -10358.112     16088.84    790.71337    9.2471172    9.2471172    9.2471172    37.061146 
  522900    298.31385   -11257.248            0    -10368.92    4083.4232    793.40777    9.2576086    9.2576086    9.2576086    41.030813 
  523000    295.69308   -11259.367            0   -10378.844    4404.1334    796.61888     9.270081     9.270081     9.270081    36.981344 
  523100    288.79508   -11247.076            0   -10387.094   -12476.734    799.81155    9.2824487    9.2824487    9.2824487    39.675969 
  523200    278.36691   -11221.434            0   -10392.504   -19015.336    802.05644    9.2911252    9.2911252    9.2911252    45.953493 
  523300    289.40199   -11257.643            0   -10395.853   -27609.733     802.7045    9.2936269    9.2936269    9.2936269    51.188436 
  523400    289.13013   -11257.037            0   -10396.056   -23600.578    801.69418    9.2897261    9.2897261    9.2897261     50.67014 
  523500    295.41489   -11273.421            0   -10393.726   -13640.263    799.18968    9.2800423    9.2800423    9.2800423    44.488529 
  523600     286.6089   -11239.054            0   -10385.582    1259.3882    795.74409    9.2666866    9.2666866    9.2666866    44.072929 
  523700    288.50928   -11233.337            0   -10374.206    13475.125    792.13036    9.2526376    9.2526376    9.2526376    60.858172 
  523800    297.61554   -11246.151            0   -10359.902    15256.815    789.26208    9.2414563    9.2414563    9.2414563    45.717917 
  523900    295.89257   -11226.702            0   -10345.584    29178.335    787.84272    9.2359132    9.2359132    9.2359132    42.456925 
  524000    286.33311   -11185.582            0   -10332.931    22324.441    788.38864     9.238046     9.238046     9.238046     42.14078 
  524100     294.1589   -11201.509            0   -10325.554    23523.831    790.80506    9.2474746    9.2474746    9.2474746    42.708326 
  524200    290.70461   -11186.387            0   -10320.719    1434.8203    794.58152    9.2621715    9.2621715    9.2621715    47.228116 
  524300    291.97941   -11186.348            0   -10316.884   -1409.2939    798.98215     9.279239     9.279239     9.279239    33.261808 
  524400    298.37922   -11201.609            0   -10313.087   -21631.913    803.18596    9.2954846    9.2954846    9.2954846    46.430555 
  524500    303.40399   -11212.148            0   -10308.662   -24288.667    806.11184    9.3067582    9.3067582    9.3067582    55.393603 
  524600    299.80154   -11197.458            0   -10304.701   -32211.467    806.94592     9.309967     9.309967     9.309967    47.763767 
  524700    296.20344    -11184.02            0   -10301.976   -24565.989    805.27123    9.3035221    9.3035221    9.3035221    42.205918 
  524800    309.83142    -11223.51            0   -10300.885   -11874.391    801.52339    9.2890664    9.2890664    9.2890664    58.497557 
  524900    311.35487   -11225.545            0   -10298.384    4468.9886    796.59485    9.2699878    9.2699878    9.2699878     31.54809 
  525000    299.95912   -11188.009            0   -10294.782    15289.387    791.81285    9.2514012    9.2514012    9.2514012    46.781016 
  525100    305.54664    -11200.66            0   -10290.794    24135.616     788.2131    9.2373603    9.2373603    9.2373603    45.520519 
  525200    307.87011   -11204.387            0   -10287.603    36405.223    786.58081    9.2309794    9.2309794    9.2309794     53.23386 
  525300    308.07909   -11205.463            0   -10288.056    30100.069    787.25757    9.2336261    9.2336261    9.2336261    58.620773 
  525400    303.35323    -11192.48            0   -10289.146    21189.283    789.99639    9.2443214    9.2443214    9.2443214    38.445121 
  525500    305.48476   -11201.105            0   -10291.424    12075.213    794.23739    9.2608342    9.2608342    9.2608342    39.576689 
  525600    307.67798   -11212.211            0   -10295.999   -3361.4141    799.11288     9.279745     9.279745     9.279745    44.874486 
  525700    308.72907   -11219.203            0   -10299.861   -28703.291    803.48671    9.2966447    9.2966447    9.2966447     50.73394 
  525800    293.83382   -11179.358            0   -10304.372   -26752.823    806.09559    9.3066957    9.3066957    9.3066957    46.018471 
  525900    293.95963   -11188.236            0   -10312.874   -22254.773    806.59559    9.3086196    9.3086196    9.3086196    44.164705 
  526000    298.58251   -11212.687            0   -10323.559   -24364.452    805.14902    9.3030515    9.3030515    9.3030515    64.914256 
  526100    294.11455   -11211.526            0   -10335.703   -19244.355    801.96044    9.2907544    9.2907544    9.2907544    37.147461 
  526200    289.44926   -11209.405            0   -10347.474   -9147.3482    797.60816    9.2739168    9.2739168    9.2739168    42.385867 
  526300    285.34654   -11206.585            0   -10356.871    15679.421    793.00307    9.2560343    9.2560343    9.2560343    48.391354 
  526400    295.19611   -11244.319            0   -10365.276    23163.872     789.3165    9.2416687    9.2416687    9.2416687    27.987955 
  526500    295.63299   -11251.721            0   -10371.376     24799.14    787.50375    9.2345884    9.2345884    9.2345884    52.914551 
  526600    295.15671   -11253.934            0   -10375.008    25033.657    787.65717     9.235188     9.235188     9.235188    54.072773 
  526700    290.86337    -11245.01            0   -10378.868    20655.946    789.64803    9.2429624    9.2429624    9.2429624    45.383081 
  526800    287.21624    -11234.68            0   -10379.399    11540.081    792.93929    9.2557862    9.2557862    9.2557862     43.60934 
  526900    289.59153   -11239.987            0   -10377.632   -6758.4511    796.43347    9.2693618    9.2693618    9.2693618    34.635077 
  527000     288.3642   -11231.343            0   -10372.643   -14628.688    799.26393    9.2803297    9.2803297    9.2803297    48.772012 
  527100    295.07261   -11245.058            0   -10366.382    -14588.15     801.0248    9.2871399    9.2871399    9.2871399    40.811629 
  527200    289.57563   -11219.083            0   -10356.776   -16796.771    801.52097     9.289057     9.289057     9.289057    42.462071 
  527300    298.14327   -11235.155            0   -10347.335   -15159.405    800.64829    9.2856846    9.2856846    9.2856846    42.926125 
  527400    284.15071   -11181.516            0   -10335.364   -9026.4966    798.73597    9.2782858    9.2782858    9.2782858    38.929626 
  527500    300.78201    -11223.53            0   -10327.853   -3687.9733    796.34556    9.2690208    9.2690208    9.2690208    37.086117 
  527600    299.47726   -11212.266            0   -10320.474    338.39949    794.29195    9.2610463    9.2610463    9.2610463    44.305827 
  527700    301.49865   -11214.068            0   -10316.256    15266.928    793.00438    9.2560394    9.2560394    9.2560394    52.150652 
  527800    304.95858   -11220.877            0   -10312.763    7196.4227    792.71964    9.2549315    9.2549315    9.2549315    40.994376 
  527900    305.70689   -11222.445            0   -10312.102    12442.326    793.40789    9.2576091    9.2576091    9.2576091    40.140201 
  528000    292.12404   -11181.961            0   -10312.065    9488.5639    794.76837    9.2628975    9.2628975    9.2628975    49.299983 
  528100    293.77961   -11186.634            0   -10311.809   -34.222229    796.47555     9.269525     9.269525     9.269525     47.75258 
  528200    295.44773   -11192.237            0   -10312.444    2831.3889    798.12468    9.2759183    9.2759183    9.2759183    31.603937 
  528300     294.2794    -11188.96            0   -10312.646   -17029.152    799.36152    9.2807074    9.2807074    9.2807074    40.804756 
  528400    308.94448   -11233.464            0    -10313.48   -16571.543    799.88073    9.2827163    9.2827163    9.2827163    33.671384 
  528500    300.13257   -11206.458            0   -10312.714   -13455.731    799.59923    9.2816272    9.2816272    9.2816272    56.619001 
  528600    289.49168   -11174.854            0   -10312.797   -2826.7948    798.62042    9.2778384    9.2778384    9.2778384     33.83158 
  528700     302.3157   -11214.299            0   -10314.054    2429.7315    797.33032    9.2728399    9.2728399    9.2728399    57.323753 
  528800    303.70709   -11219.144            0   -10314.757    1738.3095    796.27941    9.2687641    9.2687641    9.2687641    56.572776 
  528900    292.13399   -11184.007            0   -10314.082    7082.6757    795.44368    9.2655203    9.2655203    9.2655203    41.680498 
  529000    305.45039     -11225.6            0   -10316.021    10975.674    794.88764    9.2633608    9.2633608    9.2633608    39.546246 
  529100    299.92819   -11210.924            0   -10317.789    707.43892    794.67161    9.2625216    9.2625216    9.2625216    48.083967 
  529200    301.05866   -11216.299            0   -10319.798    1948.2598     794.6993    9.2626292    9.2626292    9.2626292    46.873642 
  529300    295.16445   -11201.062            0   -10322.113   -3281.5621    794.96774     9.263672     9.263672     9.263672     59.41544 
  529400    292.73271   -11197.937            0   -10326.229    4068.7224    795.38548    9.2652943    9.2652943    9.2652943    44.170682 
  529500     304.2972   -11237.521            0   -10331.376    4106.8847    796.06443    9.2679299    9.2679299    9.2679299    41.893291 
  529600    297.52867   -11223.179            0    -10337.19   -6923.4024    796.80036    9.2707849    9.2707849    9.2707849    45.872633 
  529700    297.50375   -11230.159            0   -10344.244   -8341.4857    797.26432     9.272584     9.272584     9.272584    52.161954 
  529800    295.40271   -11230.061            0   -10350.403   -8777.4505    797.16024    9.2721805    9.2721805    9.2721805    40.620298 
  529900    287.49546   -11212.737            0   -10356.625   -1100.4124    796.65887    9.2702362    9.2702362    9.2702362    53.228243 
  530000    297.95125   -11250.435            0   -10363.187   -3743.8775    795.96744    9.2675535    9.2675535    9.2675535     37.94851 
  530100    289.48095    -11229.41            0   -10367.385    -1342.633    795.09201    9.2641547    9.2641547    9.2641547    42.916968 
  530200    290.52862   -11235.433            0   -10370.288    5907.9664    794.07398    9.2601991    9.2601991    9.2601991     36.19949 
  530300    304.85941   -11281.209            0    -10373.39   -3620.9566     793.2143    9.2568561    9.2568561    9.2568561    48.924207 
  530400    288.00436   -11228.746            0   -10371.118    13749.566    792.59098    9.2544307    9.2544307    9.2544307    51.945742 
  530500    288.18146   -11227.111            0   -10368.956     13582.58    792.53559    9.2542151    9.2542151    9.2542151     49.97121 
  530600    299.32426   -11257.201            0   -10365.864    10013.415     793.3196    9.2572657    9.2572657    9.2572657    40.780426 
  530700    300.59041   -11254.226            0    -10359.12    5067.6897    794.71767    9.2627005    9.2627005    9.2627005    56.798399 
  530800     294.8032   -11228.226            0   -10350.352   -6369.5108    796.44906    9.2694223    9.2694223    9.2694223    54.140716 
  530900    302.91556   -11242.024            0   -10339.993   -3784.6366    798.04066    9.2755928    9.2755928    9.2755928     34.06578 
  531000    297.24196   -11211.377            0   -10326.241   -9849.3288    799.06188    9.2795476    9.2795476    9.2795476    39.758416 
  531100    295.32954   -11191.735            0   -10312.294   -3040.2931    799.30098    9.2804731    9.2804731    9.2804731    42.702088 
  531200    300.97903   -11197.427            0   -10301.163   -9907.5277    798.85383    9.2787422    9.2787422    9.2787422    57.395486 
  531300     301.6041   -11190.551            0   -10292.426    2457.9985    797.97503    9.2753385    9.2753385    9.2753385    47.127717 
  531400    302.69273   -11188.316            0   -10286.949   -906.67753    797.00306     9.271571     9.271571     9.271571    54.678578 
  531500    302.93309   -11185.989            0   -10283.906    11026.493    795.86068    9.2671391    9.2671391    9.2671391    45.552862 
  531600    306.02716   -11192.726            0    -10281.43    2629.5161    795.01956    9.2638733    9.2638733    9.2638733    41.459597 
  531700     309.5009   -11201.879            0   -10280.238    13776.196    794.70556    9.2626535    9.2626535    9.2626535    44.763699 
  531800    302.01712   -11179.611            0   -10280.255    17045.798    794.97993    9.2637193    9.2637193    9.2637193    54.777178 
  531900    298.95277   -11171.419            0   -10281.189    2280.1115    795.79253    9.2668746    9.2668746    9.2668746    57.759365 
  532000    304.61304   -11190.949            0   -10283.864   -12586.059    796.87794    9.2710858    9.2710858    9.2710858    41.285086 
Loop time of 2239.22 on 16 procs for 100000 steps with 1000 atoms

Performance: 3.858 ns/day, 6.220 hours/ns, 44.658 timesteps/s
94.6% CPU use with 16 MPI tasks x no OpenMP threads

MPI task timing breakdown:
Section |  min time  |  avg time  |  max time  |%varavg| %total
---------------------------------------------------------------
Pair    | 210.19     | 215.61     | 238.74     |  43.7 |  9.63
Neigh   | 78.886     | 80.457     | 88.026     |  23.6 |  3.59
Comm    | 68.613     | 99.283     | 105.91     |  84.7 |  4.43
Output  | 1246.2     | 1283.5     | 1837.4     | 399.2 | 57.32
Modify  | 5.5233     | 559.5      | 596.88     | 604.7 | 24.99
Other   |            | 0.8448     |            |       |  0.04

Nlocal:    62.5 ave 65 max 57 min
Histogram: 1 0 0 0 0 3 3 5 1 3
Nghost:    1845.88 ave 1865 max 1824 min
Histogram: 2 0 3 1 1 2 0 3 3 1
Neighs:    0 ave 0 max 0 min
Histogram: 16 0 0 0 0 0 0 0 0 0
FullNghs:  18492.1 ave 19486 max 16740 min
Histogram: 1 0 0 0 3 2 4 3 0 3

Total # of neighbors = 295874
Ave neighs/atom = 295.874
Neighbor list builds = 100000
Dangerous builds not checked
Total wall time: 3:17:20
