LAMMPS (16 Mar 2018)
Reading data file ...
  orthogonal box = (-4.72343 -4.72343 -4.72343) to (4.72343 4.72343 4.72343)
  2 by 2 by 4 MPI processor grid
  reading atoms ...
  1000 atoms
Reading potential file /home/fs01/ajm529/lammps-16Mar18/potentials/sw_potentials/AG/eps2.23.sw with DATE: 2008-01-29
Neighbor list info ...
  update every 1 steps, delay 0 steps, check no
  max neighbors/atom: 2000, page size: 100000
  master list distance cutoff = 3.836
  ghost atom cutoff = 3.836
  binsize = 1.918, bins = 5 5 5
  1 neighbor lists, perpetual/occasional/extra = 1 0 0
  (1) pair sw, perpetual
      attributes: full, newton on
      pair build: full/bin/atomonly
      stencil: full/bin/3d
      bin: standard
Setting up Verlet run ...
  Unit style    : real
  Current step  : 0
  Time step     : 1
Per MPI rank memory allocation (min/avg/max) = 3.517 | 3.585 | 4.578 Mbytes
Step Temp E_pair E_mol TotEng Press Volume Lx Ly Lz S/CPU 
       0          300   -10103.249            0   -9209.9001   -29509.093    843.06833    9.4468624    9.4468624    9.4468624            0 
     100    321.19799   -10171.668            0   -9215.1949   -50301.175    841.42239    9.4407107    9.4407107    9.4407107    49.941585 
     200    321.58272   -10186.662            0   -9229.0431   -48723.411    835.59562    9.4188682    9.4188682    9.4188682    56.849424 
     300    329.45377   -10229.382            0   -9248.3245    -19075.03    826.58069    9.3848734    9.3848734    9.3848734    52.767854 
     400     332.5087   -10262.503            0   -9272.3493   -10713.768    816.45399    9.3463902    9.3463902    9.3463902    49.458885 
     500     330.7814   -10278.153            0   -9293.1425   -9101.7223    806.63674    9.3087779    9.3087779    9.3087779    62.240619 
     600    335.66865   -10308.685            0   -9309.1209    6980.1547    798.13734    9.2759673    9.2759673    9.2759673    61.556462 
     700    322.33856   -10285.232            0   -9325.3625    20913.289    791.52712    9.2502882    9.2502882    9.2502882    49.381917 
     800     337.7939   -10350.484            0   -9344.5913   -4453.7386    787.15929    9.2332418    9.2332418    9.2332418    52.455456 
     900    330.95487   -10349.816            0   -9364.2885    9372.3975     783.9535    9.2206903    9.2206903    9.2206903    56.513236 
    1000    325.11767   -10352.978            0   -9384.8332    20437.834    781.87277    9.2125254    9.2125254    9.2125254    45.370061 
Loop time of 18.8146 on 16 procs for 1000 steps with 1000 atoms

Performance: 4.592 ns/day, 5.226 hours/ns, 53.150 timesteps/s
94.8% CPU use with 16 MPI tasks x no OpenMP threads

MPI task timing breakdown:
Section |  min time  |  avg time  |  max time  |%varavg| %total
---------------------------------------------------------------
Pair    | 1.5995     | 1.8261     | 2.5426     |  15.5 |  9.71
Neigh   | 0.5928     | 0.65846    | 0.88159    |   7.9 |  3.50
Comm    | 0.45193    | 1.3917     | 1.6868     |  23.2 |  7.40
Output  | 10.259     | 10.552     | 14.903     |  34.6 | 56.08
Modify  | 0.026245   | 4.3789     | 4.6728     |  53.7 | 23.27
Other   |            | 0.007336   |            |       |  0.04

Nlocal:    62.5 ave 69 max 56 min
Histogram: 3 0 0 3 2 3 1 1 1 2
Nghost:    1851 ave 1873 max 1827 min
Histogram: 1 1 1 2 3 1 3 1 2 1
Neighs:    0 ave 0 max 0 min
Histogram: 16 0 0 0 0 0 0 0 0 0
FullNghs:  18872.2 ave 20854 max 16759 min
Histogram: 2 1 0 2 2 4 1 1 1 2

Total # of neighbors = 301956
Ave neighs/atom = 301.956
Neighbor list builds = 1000
Dangerous builds not checked
Setting up Verlet run ...
  Unit style    : real
  Current step  : 1000
  Time step     : 1
Per MPI rank memory allocation (min/avg/max) = 3.767 | 4.477 | 4.58 Mbytes
Step Temp E_pair E_mol TotEng Press Volume Lx Ly Lz S/CPU 
    1000    325.11767   -10352.978            0   -9384.8332    20437.834    781.87277    9.2125254    9.2125254    9.2125254            0 
    1100    321.23034   -10361.923            0   -9405.3542    7475.6654    781.23151    9.2100061    9.2100061    9.2100061    61.873615 
    1200    315.69175   -10366.838            0   -9426.7618    28805.997    781.31297    9.2103262    9.2103262    9.2103262    64.865433 
    1300    323.87241   -10411.526            0   -9447.0897    18733.494      782.029    9.2131389    9.2131389    9.2131389    50.365601 
    1400    318.89382   -10416.589            0   -9466.9772    2115.4537    783.23576    9.2178755    9.2178755    9.2178755    62.659982 
    1500    298.24724   -10372.857            0   -9484.7274   -9460.0286    784.70134    9.2236213    9.2236213    9.2236213    65.233046 
    1600    305.62958   -10413.199            0   -9503.0866     5647.873    785.70178    9.2275395    9.2275395    9.2275395    45.053398 
    1700    314.15312   -10455.414            0   -9519.9194     3447.651     786.6399    9.2312105    9.2312105    9.2312105    55.252465 
    1800     306.6736   -10448.335            0   -9535.1135   -433.04742    787.57241    9.2348568    9.2348568    9.2348568    55.534572 
    1900    312.72373   -10482.096            0    -9550.858   -9786.1019     788.1041    9.2369345    9.2369345    9.2369345    38.224087 
    2000    292.80469   -10434.135            0   -9562.2126   -1307.9959    788.15028    9.2371149    9.2371149    9.2371149    47.758652 
Loop time of 18.8124 on 16 procs for 1000 steps with 1000 atoms

Performance: 4.593 ns/day, 5.226 hours/ns, 53.156 timesteps/s
94.8% CPU use with 16 MPI tasks x no OpenMP threads

MPI task timing breakdown:
Section |  min time  |  avg time  |  max time  |%varavg| %total
---------------------------------------------------------------
Pair    | 1.7527     | 1.9497     | 2.6226     |  14.3 | 10.36
Neigh   | 0.60636    | 0.66875    | 0.86399    |   7.2 |  3.55
Comm    | 0.55919    | 1.4283     | 1.6883     |  21.6 |  7.59
Output  | 9.4008     | 9.7371     | 14.731     |  41.3 | 51.76
Modify  | 0.026911   | 5.0212     | 5.3578     |  57.5 | 26.69
Other   |            | 0.007436   |            |       |  0.04

Nlocal:    62.5 ave 66 max 57 min
Histogram: 1 0 0 4 2 1 1 2 2 3
Nghost:    1846.44 ave 1867 max 1824 min
Histogram: 3 0 1 2 2 1 1 2 1 3
Neighs:    0 ave 0 max 0 min
Histogram: 16 0 0 0 0 0 0 0 0 0
FullNghs:  18726 ave 20065 max 16916 min
Histogram: 1 0 1 4 2 0 1 3 2 2

Total # of neighbors = 299616
Ave neighs/atom = 299.616
Neighbor list builds = 1000
Dangerous builds not checked
Setting up Verlet run ...
  Unit style    : real
  Current step  : 2000
  Time step     : 1
Per MPI rank memory allocation (min/avg/max) = 4.576 | 4.578 | 4.58 Mbytes
Step Temp E_pair E_mol TotEng Press Volume Lx Ly Lz S/CPU 
    2000    292.80469   -10434.135            0   -9562.2126   -1307.9959    788.15028    9.2371149    9.2371149    9.2371149            0 
    2100    301.54608   -10472.948            0   -9574.9949   -10399.586    787.66859    9.2352327    9.2352327    9.2352327     53.94461 
    2200    298.57365   -10474.856            0   -9585.7548   -16987.219    786.67475    9.2313469    9.2313469    9.2313469    44.317465 
    2300    296.02994   -10478.852            0   -9597.3251   -10594.868    785.14151    9.2253456    9.2253456    9.2253456    51.917945 
    2400    298.77216   -10496.569            0   -9606.8762    -4239.324    782.96211    9.2168018    9.2168018    9.2168018    55.538147 
    2500    303.13362   -10518.375            0   -9615.6949   -8742.2102    780.42606    9.2068398    9.2068398    9.2068398    54.591074 
    2600    304.37194   -10529.819            0   -9623.4513   -3657.1777    778.04821    9.1974797    9.1974797    9.1974797    46.796895 
    2700     291.0068   -10496.192            0   -9629.6236    3268.6971     776.1621    9.1900416    9.1900416    9.1900416    48.565145 
    2800     297.8258   -10520.762            0   -9633.8878    16251.033    774.66476    9.1841281    9.1841281    9.1841281    47.770442 
    2900    289.77986   -10499.329            0   -9636.4144    11901.122    774.00109    9.1815046    9.1815046    9.1815046     45.63289 
    3000    291.62371   -10506.635            0   -9638.2298      16172.2    774.36827    9.1829563    9.1829563    9.1829563    55.006953 
Loop time of 19.9674 on 16 procs for 1000 steps with 1000 atoms

Performance: 4.327 ns/day, 5.546 hours/ns, 50.082 timesteps/s
94.8% CPU use with 16 MPI tasks x no OpenMP threads

MPI task timing breakdown:
Section |  min time  |  avg time  |  max time  |%varavg| %total
---------------------------------------------------------------
Pair    | 1.7332     | 1.9885     | 2.7499     |  18.4 |  9.96
Neigh   | 0.60196    | 0.67852    | 0.90617    |   9.5 |  3.40
Comm    | 0.46056    | 1.4499     | 1.782      |  28.0 |  7.26
Output  | 11.077     | 11.377     | 15.816     |  34.0 | 56.98
Modify  | 0.026137   | 4.4663     | 4.7662     |  54.2 | 22.37
Other   |            | 0.007495   |            |       |  0.04

Nlocal:    62.5 ave 69 max 53 min
Histogram: 1 0 0 2 2 1 5 2 2 1
Nghost:    1868.25 ave 1887 max 1849 min
Histogram: 1 2 1 1 3 3 1 1 2 1
Neighs:    0 ave 0 max 0 min
Histogram: 16 0 0 0 0 0 0 0 0 0
FullNghs:  19059.5 ave 21001 max 16042 min
Histogram: 1 0 0 2 2 1 4 3 2 1

Total # of neighbors = 304952
Ave neighs/atom = 304.952
Neighbor list builds = 1000
Dangerous builds not checked
Setting up Verlet run ...
  Unit style    : real
  Current step  : 3000
  Time step     : 1
Per MPI rank memory allocation (min/avg/max) = 4.576 | 4.578 | 4.58 Mbytes
Step Temp E_pair E_mol TotEng Press Volume Lx Ly Lz S/CPU 
    3000    291.62371   -10506.635            0   -9638.2298      16172.2    774.36827    9.1829563    9.1829563    9.1829563            0 
    3100    295.10108   -10515.979            0   -9637.2179    -1749.759    775.45476    9.1872491    9.1872491    9.1872491    49.575258 
    3200    298.04251   -10522.945            0   -9635.4251   -266.70008    776.97961     9.193267     9.193267     9.193267    50.683858 
    3300    292.36111   -10500.536            0   -9629.9346    15048.237    778.87223    9.2007255    9.2007255    9.2007255    57.485455 
    3400    296.29505   -10504.846            0   -9622.5303   -7156.1733    781.29128    9.2102409    9.2102409    9.2102409    47.878395 
    3500     291.2698   -10481.027            0   -9613.6756   -14499.358    783.43807     9.218669     9.218669     9.218669    53.162268 
    3600    294.91914   -10481.344            0    -9603.125    20764.984    784.95404    9.2246113    9.2246113    9.2246113    55.159577 
    3700    305.02937   -10501.784            0   -9593.4588   -8467.8796    786.37538    9.2301757    9.2301757    9.2301757    41.772221 
    3800    306.28452   -10495.665            0   -9583.6017   -8113.8714    787.24639    9.2335823    9.2335823    9.2335823    58.434998 
    3900    302.74935   -10476.252            0   -9574.7158   -9518.4212     787.7943     9.235724     9.235724     9.235724    61.393148 
    4000    302.39694   -10467.048            0   -9566.5618   -596.79195    788.15062    9.2371162    9.2371162    9.2371162    60.103901 
Loop time of 18.9103 on 16 procs for 1000 steps with 1000 atoms

Performance: 4.569 ns/day, 5.253 hours/ns, 52.881 timesteps/s
94.9% CPU use with 16 MPI tasks x no OpenMP threads

MPI task timing breakdown:
Section |  min time  |  avg time  |  max time  |%varavg| %total
---------------------------------------------------------------
Pair    | 1.7109     | 1.9402     | 2.6755     |  16.0 | 10.26
Neigh   | 0.59794    | 0.66476    | 0.86858    |   7.6 |  3.52
Comm    | 0.4807     | 1.4204     | 1.6908     |  23.8 |  7.51
Output  | 10.252     | 10.543     | 14.85      |  34.3 | 55.75
Modify  | 0.026379   | 4.3349     | 4.6261     |  53.4 | 22.92
Other   |            | 0.00748    |            |       |  0.04

Nlocal:    62.5 ave 67 max 58 min
Histogram: 1 0 2 4 2 1 2 2 1 1
Nghost:    1839.81 ave 1863 max 1809 min
Histogram: 1 0 1 2 2 1 4 1 3 1
Neighs:    0 ave 0 max 0 min
Histogram: 16 0 0 0 0 0 0 0 0 0
FullNghs:  18719.6 ave 20043 max 17249 min
Histogram: 1 1 1 4 1 2 2 0 2 2

Total # of neighbors = 299514
Ave neighs/atom = 299.514
Neighbor list builds = 1000
Dangerous builds not checked
Setting up Verlet run ...
  Unit style    : real
  Current step  : 4000
  Time step     : 1
Per MPI rank memory allocation (min/avg/max) = 4.576 | 4.578 | 4.58 Mbytes
Step Temp E_pair E_mol TotEng Press Volume Lx Ly Lz S/CPU 
    4000    302.39694   -10467.048            0   -9566.5618   -596.79195    788.15062    9.2371162    9.2371162    9.2371162            0 
    4100    287.50513   -10415.147            0    -9559.006    2255.6032     788.0541    9.2367391    9.2367391    9.2367391      51.1714 
    4200    297.00854   -10437.369            0   -9552.9285   -10437.608    787.70752    9.2353849    9.2353849    9.2353849    64.340733 
    4300    301.32786   -10444.864            0   -9547.5607   -23457.254    787.25062    9.2335989    9.2335989    9.2335989    60.787812 
    4400    305.65127   -10452.228            0   -9542.0512    4411.7281    786.20115     9.229494     9.229494     9.229494    46.410744 
    4500    307.82849    -10455.03            0   -9538.3694    18751.032     785.3355    9.2261053    9.2261053    9.2261053    55.058558 
    4600    304.10325   -10442.403            0   -9536.8353    1230.8097    784.77675    9.2239168    9.2239168    9.2239168    62.342208 
    4700    309.18326   -10457.564            0   -9536.8689    7731.0805    784.60828    9.2232567    9.2232567    9.2232567    57.925805 
    4800    309.74752   -10459.859            0   -9537.4834    12695.931    784.89032    9.2243617    9.2243617    9.2243617    50.565177 
    4900    312.07296   -10469.713            0    -9540.413    12354.508    785.36081    9.2262045    9.2262045    9.2262045    55.200907 
    5000     306.2763    -10458.15            0   -9546.1111    7500.4985    786.48431    9.2306019    9.2306019    9.2306019    60.208624 
Loop time of 17.905 on 16 procs for 1000 steps with 1000 atoms

Performance: 4.825 ns/day, 4.974 hours/ns, 55.850 timesteps/s
94.9% CPU use with 16 MPI tasks x no OpenMP threads

MPI task timing breakdown:
Section |  min time  |  avg time  |  max time  |%varavg| %total
---------------------------------------------------------------
Pair    | 1.646      | 1.9059     | 2.7522     |  18.4 | 10.64
Neigh   | 0.59285    | 0.65743    | 0.87794    |   8.2 |  3.67
Comm    | 0.41405    | 1.4802     | 1.8027     |  26.4 |  8.27
Output  | 9.1225     | 9.4197     | 13.826     |  37.1 | 52.61
Modify  | 0.025539   | 4.4344     | 4.7332     |  54.1 | 24.77
Other   |            | 0.007366   |            |       |  0.04

Nlocal:    62.5 ave 70 max 58 min
Histogram: 4 1 2 1 2 3 2 0 0 1
Nghost:    1844.5 ave 1856 max 1824 min
Histogram: 1 0 0 1 3 1 3 2 1 4
Neighs:    0 ave 0 max 0 min
Histogram: 16 0 0 0 0 0 0 0 0 0
FullNghs:  18760.9 ave 21006 max 17376 min
Histogram: 3 2 2 1 2 3 1 1 0 1

Total # of neighbors = 300174
Ave neighs/atom = 300.174
Neighbor list builds = 1000
Dangerous builds not checked
Setting up Verlet run ...
  Unit style    : real
  Current step  : 5000
  Time step     : 1
Per MPI rank memory allocation (min/avg/max) = 4.576 | 4.578 | 4.58 Mbytes
Step Temp E_pair E_mol TotEng Press Volume Lx Ly Lz S/CPU 
    5000     306.2763    -10458.15            0   -9546.1111    7500.4985    786.48431    9.2306019    9.2306019    9.2306019            0 
    5100    309.68482   -10478.128            0   -9555.9396   -11113.364    787.88564    9.2360809    9.2360809    9.2360809    55.965662 
    5200    293.14634     -10438.3            0   -9565.3599   -701.96044    789.12042    9.2409034    9.2409034    9.2409034    44.405031 
    5300    298.73978    -10467.91            0   -9578.3136    3494.5541    790.54924    9.2464773    9.2464773    9.2464773    57.756413 
    5400    301.12594   -10485.736            0   -9589.0344   -7437.6372    792.13342    9.2526495    9.2526495    9.2526495    45.855062 
    5500    301.95033   -10496.561            0   -9597.4046   -17335.368    793.10018    9.2564121    9.2564121    9.2564121    60.959088 
    5600    292.66251   -10475.665            0   -9604.1662   -25632.523    793.02643    9.2561252    9.2561252    9.2561252    61.328778 
    5700     289.3569   -10470.444            0   -9608.7889   -15365.253    791.83611    9.2514918    9.2514918    9.2514918    43.899547 
    5800    287.74502   -10469.158            0   -9612.3023   -13790.973    789.94104    9.2441055    9.2441055    9.2441055    64.129886 
    5900    288.84647   -10475.212            0    -9615.077    -10013.99    787.41055    9.2342241    9.2342241    9.2342241    56.176041 
    6000    295.44006   -10495.546            0   -9615.7762    13693.159    784.60696    9.2232515    9.2232515    9.2232515    59.747366 
Loop time of 18.5131 on 16 procs for 1000 steps with 1000 atoms

Performance: 4.667 ns/day, 5.143 hours/ns, 54.016 timesteps/s
94.9% CPU use with 16 MPI tasks x no OpenMP threads

MPI task timing breakdown:
Section |  min time  |  avg time  |  max time  |%varavg| %total
---------------------------------------------------------------
Pair    | 1.6842     | 1.8924     | 2.6938     |  16.5 | 10.22
Neigh   | 0.59778    | 0.65933    | 0.8765     |   8.0 |  3.56
Comm    | 0.41479    | 1.433      | 1.7014     |  24.4 |  7.74
Output  | 9.637      | 9.9438     | 14.494     |  37.3 | 53.71
Modify  | 0.025172   | 4.5774     | 4.8854     |  54.9 | 24.73
Other   |            | 0.007325   |            |       |  0.04

Nlocal:    62.5 ave 67 max 56 min
Histogram: 2 0 2 0 1 1 0 6 2 2
Nghost:    1863.5 ave 1875 max 1849 min
Histogram: 2 2 1 0 1 1 1 1 6 1
Neighs:    0 ave 0 max 0 min
Histogram: 16 0 0 0 0 0 0 0 0 0
FullNghs:  18807.4 ave 20106 max 16761 min
Histogram: 2 0 2 0 1 1 1 4 2 3

Total # of neighbors = 300918
Ave neighs/atom = 300.918
Neighbor list builds = 1000
Dangerous builds not checked
Setting up Verlet run ...
  Unit style    : real
  Current step  : 6000
  Time step     : 1
Per MPI rank memory allocation (min/avg/max) = 4.576 | 4.578 | 4.58 Mbytes
Step Temp E_pair E_mol TotEng Press Volume Lx Ly Lz S/CPU 
    6000    295.44006   -10495.546            0   -9615.7762    13693.159    784.60696    9.2232515    9.2232515    9.2232515            0 
    6100    293.43824   -10489.342            0   -9615.5327    3543.8629    782.28064     9.214127     9.214127     9.214127    52.559969 
    6200    300.37221   -10508.569            0   -9614.1117    24973.389    780.89024    9.2086648    9.2086648    9.2086648    57.956417 
    6300    294.38382   -10491.167            0   -9614.5424    4469.6538    780.70917     9.207953     9.207953     9.207953     39.28749 
    6400    307.47889   -10529.416            0   -9613.7965    5585.2981    781.24786    9.2100703    9.2100703    9.2100703    47.020897 
    6500     300.4607   -10507.004            0   -9612.2833    3156.0224    782.13736    9.2135644    9.2135644    9.2135644    61.361379 
    6600    294.75133   -10489.374            0   -9611.6548    17819.047    783.17351    9.2176312    9.2176312    9.2176312    59.324948 
    6700    301.59818    -10508.59            0    -9610.482   -12148.475    784.30781    9.2220792    9.2220792    9.2220792    50.232539 
    6800    294.73742   -10485.187            0   -9607.5097   -7401.6144    785.24147    9.2257371    9.2257371    9.2257371    54.605124 
    6900    289.62833   -10467.094            0   -9604.6301   -14242.149    785.79792    9.2279158    9.2279158    9.2279158    60.477399 
    7000    292.43781    -10471.17            0   -9600.3405   -3006.1222    785.94263    9.2284823    9.2284823    9.2284823    45.635959 
Loop time of 19.2823 on 16 procs for 1000 steps with 1000 atoms

Performance: 4.481 ns/day, 5.356 hours/ns, 51.861 timesteps/s
94.8% CPU use with 16 MPI tasks x no OpenMP threads

MPI task timing breakdown:
Section |  min time  |  avg time  |  max time  |%varavg| %total
---------------------------------------------------------------
Pair    | 1.7828     | 1.9657     | 2.6989     |  14.8 | 10.19
Neigh   | 0.61978    | 0.67472    | 0.89721    |   7.7 |  3.50
Comm    | 0.46567    | 1.421      | 1.658      |  22.6 |  7.37
Output  | 10.538     | 10.832     | 15.186     |  34.2 | 56.17
Modify  | 0.025293   | 4.3818     | 4.6761     |  53.7 | 22.72
Other   |            | 0.007447   |            |       |  0.04

Nlocal:    62.5 ave 69 max 57 min
Histogram: 1 0 2 3 2 5 1 1 0 1
Nghost:    1849.38 ave 1869 max 1826 min
Histogram: 1 1 2 2 2 0 2 2 2 2
Neighs:    0 ave 0 max 0 min
Histogram: 16 0 0 0 0 0 0 0 0 0
FullNghs:  18785.8 ave 20775 max 16862 min
Histogram: 1 0 1 3 3 4 1 2 0 1

Total # of neighbors = 300572
Ave neighs/atom = 300.572
Neighbor list builds = 1000
Dangerous builds not checked
Setting up Verlet run ...
  Unit style    : real
  Current step  : 7000
  Time step     : 1
Per MPI rank memory allocation (min/avg/max) = 4.576 | 4.578 | 4.58 Mbytes
Step Temp E_pair E_mol TotEng Press Volume Lx Ly Lz S/CPU 
    7000    292.43781    -10471.17            0   -9600.3405   -3006.1222    785.94263    9.2284823    9.2284823    9.2284823            0 
    7100    297.08958   -10478.238            0   -9593.5564    1327.1331    786.13979    9.2292539    9.2292539    9.2292539    42.422376 
    7200    301.84068   -10482.923            0   -9584.0934   -5936.8083      786.329    9.2299943    9.2299943    9.2299943     56.13921 
    7300    305.62784   -10479.453            0   -9569.3458     2342.284    786.24152     9.229652     9.229652     9.229652    50.800583 
    7400    310.72224   -10477.295            0    -9552.017   -21264.248    785.99966    9.2287055    9.2287055    9.2287055    57.889252 
    7500    307.17442   -10449.822            0   -9535.1087    -7082.639    785.20995    9.2256137    9.2256137    9.2256137    69.172454 
    7600    323.33787   -10486.961            0   -9524.1157    16075.916    783.93274    9.2206089    9.2206089    9.2206089    47.579065 
    7700    307.99161   -10434.083            0   -9516.9364    7715.3402    783.36718     9.218391     9.218391     9.218391    62.056013 
    7800    307.94677   -10432.062            0   -9515.0487    -10609.34    783.56707     9.219175     9.219175     9.219175      63.6685 
    7900    319.21375   -10467.585            0   -9517.0211    2040.1762    784.08354    9.2212001    9.2212001    9.2212001    48.010529 
    8000    314.82426   -10459.756            0   -9522.2631    3876.3192    784.96656    9.2246604    9.2246604    9.2246604    46.234728 
Loop time of 18.8097 on 16 procs for 1000 steps with 1000 atoms

Performance: 4.593 ns/day, 5.225 hours/ns, 53.164 timesteps/s
94.9% CPU use with 16 MPI tasks x no OpenMP threads

MPI task timing breakdown:
Section |  min time  |  avg time  |  max time  |%varavg| %total
---------------------------------------------------------------
Pair    | 1.7389     | 1.9531     | 2.7053     |  15.8 | 10.38
Neigh   | 0.60473    | 0.66964    | 0.88376    |   7.7 |  3.56
Comm    | 0.45912    | 1.4249     | 1.7023     |  23.7 |  7.58
Output  | 9.9313     | 10.234     | 14.727     |  36.3 | 54.41
Modify  | 0.025515   | 4.5205     | 4.825      |  54.6 | 24.03
Other   |            | 0.007444   |            |       |  0.04

Nlocal:    62.5 ave 70 max 59 min
Histogram: 5 0 4 3 1 1 1 0 0 1
Nghost:    1858.25 ave 1877 max 1840 min
Histogram: 1 1 2 2 2 2 3 1 1 1
Neighs:    0 ave 0 max 0 min
Histogram: 16 0 0 0 0 0 0 0 0 0
FullNghs:  18806.6 ave 21140 max 17687 min
Histogram: 3 2 3 4 1 1 1 0 0 1

Total # of neighbors = 300906
Ave neighs/atom = 300.906
Neighbor list builds = 1000
Dangerous builds not checked
Setting up Verlet run ...
  Unit style    : real
  Current step  : 8000
  Time step     : 1
Per MPI rank memory allocation (min/avg/max) = 4.576 | 4.578 | 4.58 Mbytes
Step Temp E_pair E_mol TotEng Press Volume Lx Ly Lz S/CPU 
    8000    314.82426   -10459.756            0   -9522.2631    3876.3192    784.96656    9.2246604    9.2246604    9.2246604            0 
    8100    309.28185   -10450.251            0   -9529.2622   -12284.548    786.44104    9.2304326    9.2304326    9.2304326    57.843782 
    8200    310.08214   -10462.282            0     -9538.91    5818.1508    788.03573    9.2366673    9.2366673    9.2366673    44.681501 
    8300    307.08905   -10465.658            0   -9551.1997   -16617.509    789.49506    9.2423655    9.2423655    9.2423655      50.1655 
    8400    304.08835   -10467.611            0   -9562.0879    18407.702    790.63844    9.2468251    9.2468251    9.2468251    49.413968 
    8500    295.46086   -10450.234            0   -9570.4023    577.81573    791.78446    9.2512906    9.2512906    9.2512906    29.765439 
    8600    302.65039   -10479.372            0   -9578.1309   -11441.123     792.5163      9.25414      9.25414      9.25414    28.556673 
    8700    305.82371   -10495.732            0   -9585.0407   -16489.544    792.35299    9.2535044    9.2535044    9.2535044    32.241417 
    8800     299.9082   -10483.007            0   -9589.9314    -19025.62    791.09521    9.2486054    9.2486054    9.2486054     25.45564 
    8900    302.93484   -10497.287            0   -9595.1989   -1001.5746    788.60841    9.2389043    9.2389043    9.2389043    37.689333 
    9000    301.55732   -10499.196            0   -9601.2094    3653.6307    785.72033    9.2276121    9.2276121    9.2276121    32.099894 
Loop time of 27.644 on 16 procs for 1000 steps with 1000 atoms

Performance: 3.125 ns/day, 7.679 hours/ns, 36.174 timesteps/s
94.4% CPU use with 16 MPI tasks x no OpenMP threads

MPI task timing breakdown:
Section |  min time  |  avg time  |  max time  |%varavg| %total
---------------------------------------------------------------
Pair    | 1.6859     | 1.8765     | 2.6073     |  15.9 |  6.79
Neigh   | 0.59217    | 0.6537     | 0.85352    |   7.5 |  2.36
Comm    | 0.44713    | 1.3776     | 1.6315     |  23.7 |  4.98
Output  | 15.78      | 16.278     | 23.701     |  47.5 | 58.88
Modify  | 0.025753   | 7.4506     | 7.9502     |  70.2 | 26.95
Other   |            | 0.007374   |            |       |  0.03

Nlocal:    62.5 ave 70 max 56 min
Histogram: 2 2 3 0 1 2 1 3 0 2
Nghost:    1863.44 ave 1886 max 1845 min
Histogram: 3 0 3 3 0 2 0 3 1 1
Neighs:    0 ave 0 max 0 min
Histogram: 16 0 0 0 0 0 0 0 0 0
FullNghs:  18785.1 ave 21199 max 16877 min
Histogram: 3 2 2 1 1 1 2 2 0 2

Total # of neighbors = 300562
Ave neighs/atom = 300.562
Neighbor list builds = 1000
Dangerous builds not checked
Setting up Verlet run ...
  Unit style    : real
  Current step  : 9000
  Time step     : 1
Per MPI rank memory allocation (min/avg/max) = 4.576 | 4.578 | 4.58 Mbytes
Step Temp E_pair E_mol TotEng Press Volume Lx Ly Lz S/CPU 
    9000    301.55732   -10499.196            0   -9601.2094    3653.6307    785.72033    9.2276121    9.2276121    9.2276121            0 
    9100    299.15062   -10497.033            0   -9606.2135    1150.4543    783.18598    9.2176801    9.2176801    9.2176801    40.293485 
    9200     300.9477   -10507.528            0   -9611.3572    5108.6396    781.22587    9.2099839    9.2099839    9.2099839    31.640659 
    9300    307.05484   -10531.192            0   -9616.8352     -2375.28    779.81653    9.2044423    9.2044423    9.2044423    33.052099 
    9400    304.46921   -10529.505            0   -9622.8472    8044.9586    778.66438     9.199907     9.199907     9.199907    30.696782 
    9500    304.94838   -10537.403            0   -9629.3191    10160.571     777.6496    9.1959087    9.1959087    9.1959087    40.607933 
    9600    296.19292   -10516.314            0   -9634.3024    14677.355     776.9721    9.1932374    9.1932374    9.1932374    29.109683 
    9700    295.45119   -10519.934            0   -9640.1312    6463.8621    776.72942    9.1922802    9.1922802    9.1922802    39.309637 
    9800    297.69199   -10532.571            0    -9646.095   -1664.0995    776.84591    9.1927397    9.1927397    9.1927397     31.53764 
    9900    294.29684   -10527.595            0   -9651.2297    2947.0692     777.5655    9.1955772    9.1955772    9.1955772    29.948251 
   10000    299.84673    -10548.83            0   -9655.9381   -6474.0213    778.63071    9.1997744    9.1997744    9.1997744    35.175713 
Loop time of 29.72 on 16 procs for 1000 steps with 1000 atoms

Performance: 2.907 ns/day, 8.256 hours/ns, 33.647 timesteps/s
94.4% CPU use with 16 MPI tasks x no OpenMP threads

MPI task timing breakdown:
Section |  min time  |  avg time  |  max time  |%varavg| %total
---------------------------------------------------------------
Pair    | 1.7679     | 1.9818     | 2.783      |  17.4 |  6.67
Neigh   | 0.60614    | 0.67491    | 0.90815    |   8.6 |  2.27
Comm    | 0.40443    | 1.4393     | 1.7229     |  26.3 |  4.84
Output  | 16.85      | 17.399     | 25.589     |  50.7 | 58.54
Modify  | 0.026175   | 8.217      | 8.7665     |  73.8 | 27.65
Other   |            | 0.007483   |            |       |  0.03

Nlocal:    62.5 ave 68 max 55 min
Histogram: 1 0 2 1 1 1 4 4 1 1
Nghost:    1874.81 ave 1893 max 1860 min
Histogram: 2 2 2 1 1 3 2 2 0 1
Neighs:    0 ave 0 max 0 min
Histogram: 16 0 0 0 0 0 0 0 0 0
FullNghs:  18957.1 ave 20835 max 16456 min
Histogram: 1 0 2 1 2 0 4 4 1 1

Total # of neighbors = 303314
Ave neighs/atom = 303.314
Neighbor list builds = 1000
Dangerous builds not checked
Setting up Verlet run ...
  Unit style    : real
  Current step  : 10000
  Time step     : 1
Per MPI rank memory allocation (min/avg/max) = 4.576 | 4.578 | 4.58 Mbytes
Step Temp E_pair E_mol TotEng Press Volume Lx Ly Lz S/CPU 
   10000    299.84673    -10548.83            0   -9655.9381   -6474.0213    778.63071    9.1997744    9.1997744    9.1997744            0 
   10100     291.0105   -10526.181            0   -9659.6012   -7561.9008    779.35697    9.2026338    9.2026338    9.2026338    34.711359 
   10200    302.36546   -10564.166            0   -9663.7729    241.04665    779.95805     9.204999     9.204999     9.204999    33.466181 
   10300    294.38783   -10542.668            0   -9666.0315    2386.7112    780.54584    9.2073108    9.2073108    9.2073108    31.369822 
   10400     297.8045   -10554.212            0    -9667.401   -2457.6944    780.87317    9.2085977    9.2085977    9.2085977    37.942117 
   10500    290.82147   -10533.757            0   -9667.7399     365.4437    780.96242    9.2089485    9.2089485    9.2089485    34.270566 
   10600    289.00715   -10527.484            0   -9666.8705    5209.9902    780.68081    9.2078415    9.2078415    9.2078415    27.637964 
   10700    295.97288   -10545.108            0   -9663.7509    -7296.795     780.4412    9.2068994    9.2068994    9.2068994    34.262754 
   10800    292.35303   -10527.604            0   -9657.0265   -2338.7837    779.93684    9.2049156    9.2049156    9.2049156    28.080339 
   10900    304.13548    -10550.76            0    -9645.097   -12426.439    779.09208    9.2015911    9.2015911    9.2015911    35.599357 
   11000    299.31681   -10519.659            0   -9628.3441    12723.974    777.87158    9.1967836    9.1967836    9.1967836     36.65122 
Loop time of 30.2459 on 16 procs for 1000 steps with 1000 atoms

Performance: 2.857 ns/day, 8.402 hours/ns, 33.062 timesteps/s
94.4% CPU use with 16 MPI tasks x no OpenMP threads

MPI task timing breakdown:
Section |  min time  |  avg time  |  max time  |%varavg| %total
---------------------------------------------------------------
Pair    | 1.7548     | 1.9606     | 2.8441     |  18.9 |  6.48
Neigh   | 0.60982    | 0.66816    | 0.9092     |   9.2 |  2.21
Comm    | 0.33368    | 1.4578     | 1.7206     |  28.2 |  4.82
Output  | 16.888     | 17.468     | 26.124     |  53.5 | 57.75
Modify  | 0.026224   | 8.6839     | 9.2655     |  75.9 | 28.71
Other   |            | 0.007495   |            |       |  0.02

Nlocal:    62.5 ave 71 max 58 min
Histogram: 2 1 3 6 1 1 1 0 0 1
Nghost:    1872.81 ave 1895 max 1847 min
Histogram: 1 1 1 1 4 3 1 1 0 3
Neighs:    0 ave 0 max 0 min
Histogram: 16 0 0 0 0 0 0 0 0 0
FullNghs:  18971.1 ave 21806 max 17515 min
Histogram: 1 3 4 4 2 0 1 0 0 1

Total # of neighbors = 303538
Ave neighs/atom = 303.538
Neighbor list builds = 1000
Dangerous builds not checked
Setting up Verlet run ...
  Unit style    : real
  Current step  : 11000
  Time step     : 1
Per MPI rank memory allocation (min/avg/max) = 4.576 | 4.578 | 4.58 Mbytes
Step Temp E_pair E_mol TotEng Press Volume Lx Ly Lz S/CPU 
   11000    299.31681   -10519.659            0   -9628.3441    12723.974    777.87158    9.1967836    9.1967836    9.1967836            0 
   11100    312.49519    -10543.24            0    -9612.683    17364.327    777.24194    9.1943015    9.1943015    9.1943015    31.752464 
   11200    289.62569   -10459.858            0   -9597.4019    12807.387    777.54736    9.1955057    9.1955057    9.1955057    31.896666 
   11300    299.87553   -10481.827            0   -9588.8489    7805.3191    778.21222    9.1981259    9.1981259    9.1981259    31.679256 
   11400    302.29645   -10483.409            0   -9583.2215   -559.23399    779.07887    9.2015391    9.2015391    9.2015391    25.214726 
   11500    305.46735    -10487.94            0   -9578.3106    4519.2552    780.16167       9.2058       9.2058       9.2058    31.471022 
   11600    299.98322   -10467.954            0   -9574.6552    12607.493    781.87999    9.2125537    9.2125537    9.2125537    25.337356 
   11700    315.13332   -10511.003            0   -9572.5899    1449.9144    784.13004    9.2213824    9.2213824    9.2213824     24.44113 
   11800    302.89186   -10472.851            0   -9570.8909   -10835.981    786.59396    9.2310308    9.2310308    9.2310308    30.017509 
   11900    287.76463   -10427.268            0   -9570.3539   -3894.4047    788.77505     9.239555     9.239555     9.239555    24.663271 
   12000     298.4224   -10460.593            0   -9571.9416    1174.8048    790.85603    9.2476733    9.2476733    9.2476733    35.802887 
Loop time of 34.8019 on 16 procs for 1000 steps with 1000 atoms

Performance: 2.483 ns/day, 9.667 hours/ns, 28.734 timesteps/s
94.3% CPU use with 16 MPI tasks x no OpenMP threads

MPI task timing breakdown:
Section |  min time  |  avg time  |  max time  |%varavg| %total
---------------------------------------------------------------
Pair    | 1.7456     | 1.9796     | 2.831      |  17.2 |  5.69
Neigh   | 0.60324    | 0.67411    | 0.91604    |   8.3 |  1.94
Comm    | 0.39421    | 1.4879     | 1.7933     |  25.4 |  4.28
Output  | 19.961     | 20.631     | 30.626     |  56.8 | 59.28
Modify  | 0.026093   | 10.022     | 10.692     |  81.5 | 28.80
Other   |            | 0.007445   |            |       |  0.02

Nlocal:    62.5 ave 67 max 59 min
Histogram: 2 2 4 1 0 1 2 1 1 2
Nghost:    1847.19 ave 1872 max 1822 min
Histogram: 1 2 0 2 4 1 2 0 2 2
Neighs:    0 ave 0 max 0 min
Histogram: 16 0 0 0 0 0 0 0 0 0
FullNghs:  18659.6 ave 20143 max 17330 min
Histogram: 2 2 0 4 1 1 2 0 2 2

Total # of neighbors = 298554
Ave neighs/atom = 298.554
Neighbor list builds = 1000
Dangerous builds not checked
Setting up Verlet run ...
  Unit style    : real
  Current step  : 12000
  Time step     : 1
Per MPI rank memory allocation (min/avg/max) = 4.576 | 4.578 | 4.58 Mbytes
Step Temp E_pair E_mol TotEng Press Volume Lx Ly Lz S/CPU 
   12000     298.4224   -10460.593            0   -9571.9416    1174.8048    790.85603    9.2476733    9.2476733    9.2476733            0 
   12100    295.96671   -10453.716            0   -9572.3781    -2708.055    792.78306    9.2551782    9.2551782    9.2551782    26.148565 
   12200    303.62153   -10475.601            0   -9571.4681   -11512.256    794.13194    9.2604243    9.2604243    9.2604243    17.910708 
   12300    301.79825       -10470            0   -9571.2966   -12508.378    794.62148    9.2623268    9.2623268    9.2623268    27.317242 
   12400    292.80447   -10441.953            0   -9570.0314   -9865.9668    794.58576     9.262188     9.262188     9.262188    21.929875 
   12500     297.6688   -10452.928            0    -9566.521   -1294.3108     793.8952    9.2595041    9.2595041    9.2595041    34.627025 
   12600    297.72729   -10450.139            0   -9563.5575    -7793.896    792.36032    9.2535329    9.2535329    9.2535329    31.511424 
   12700    308.01947   -10476.956            0   -9559.7269   -8196.4365    790.21419    9.2451709    9.2451709    9.2451709    37.781613 
   12800    304.30729   -10459.793            0   -9553.6175    2334.4189    787.79743    9.2357362    9.2357362    9.2357362    31.022557 
   12900    296.13658   -10430.857            0   -9549.0125     3566.363     785.2126    9.2256241    9.2256241    9.2256241    32.352626 
   13000    302.33748   -10443.315            0   -9543.0057     12114.39    782.95606    9.2167781    9.2167781    9.2167781     32.89544 
Loop time of 35.6908 on 16 procs for 1000 steps with 1000 atoms

Performance: 2.421 ns/day, 9.914 hours/ns, 28.018 timesteps/s
94.3% CPU use with 16 MPI tasks x no OpenMP threads

MPI task timing breakdown:
Section |  min time  |  avg time  |  max time  |%varavg| %total
---------------------------------------------------------------
Pair    | 1.6818     | 1.8895     | 2.6519     |  15.6 |  5.29
Neigh   | 0.60392    | 0.65842    | 0.86674    |   7.3 |  1.84
Comm    | 0.50046    | 1.4704     | 1.7315     |  22.5 |  4.12
Output  | 19.399     | 20.167     | 31.633     |  65.9 | 56.50
Modify  | 0.029626   | 11.499     | 12.267     |  87.3 | 32.22
Other   |            | 0.007313   |            |       |  0.02

Nlocal:    62.5 ave 67 max 59 min
Histogram: 2 1 3 3 0 1 2 3 0 1
Nghost:    1854.38 ave 1869 max 1831 min
Histogram: 1 0 1 0 1 3 3 3 3 1
Neighs:    0 ave 0 max 0 min
Histogram: 16 0 0 0 0 0 0 0 0 0
FullNghs:  18861.4 ave 20103 max 17613 min
Histogram: 2 0 3 1 1 2 2 2 2 1

Total # of neighbors = 301782
Ave neighs/atom = 301.782
Neighbor list builds = 1000
Dangerous builds not checked
Setting up Verlet run ...
  Unit style    : real
  Current step  : 13000
  Time step     : 1
Per MPI rank memory allocation (min/avg/max) = 4.576 | 4.578 | 4.58 Mbytes
Step Temp E_pair E_mol TotEng Press Volume Lx Ly Lz S/CPU 
   13000    302.33748   -10443.315            0   -9543.0057     12114.39    782.95606    9.2167781    9.2167781    9.2167781            0 
   13100    315.42199   -10478.321            0   -9539.0479    5582.4059    781.35244    9.2104813    9.2104813    9.2104813    27.604828 
   13200    306.83403   -10450.915            0   -9537.2152    2325.7337    780.56652    9.2073921    9.2073921    9.2073921    24.711199 
   13300    308.21301   -10453.381            0   -9535.5752    3475.3128    780.04703    9.2053491    9.2053491    9.2053491    29.109536 
   13400      305.589   -10447.781            0   -9537.7892    8726.4497    779.75398    9.2041962    9.2041962    9.2041962    31.332111 
   13500    308.26328   -10462.927            0   -9544.9717    7036.1651    779.62836    9.2037019    9.2037019    9.2037019    30.727704 
   13600    316.11393   -10498.427            0   -9557.0935    9175.4888    779.69511    9.2039645    9.2039645    9.2039645    28.641287 
   13700    311.59809   -10500.414            0   -9572.5278   -8816.9953    780.27004    9.2062262    9.2062262    9.2062262    27.887095 
   13800    312.28258   -10517.494            0   -9587.5693    8615.0401    780.99885    9.2090917    9.2090917    9.2090917    27.578318 
   13900    306.33232   -10512.819            0   -9600.6137    3620.5961    782.34653    9.2143857    9.2143857    9.2143857     30.52976 
   14000    286.30789   -10460.651            0   -9608.0747    1788.3859    784.17665    9.2215651    9.2215651    9.2215651    32.573013 
Loop time of 34.5995 on 16 procs for 1000 steps with 1000 atoms

Performance: 2.497 ns/day, 9.611 hours/ns, 28.902 timesteps/s
94.4% CPU use with 16 MPI tasks x no OpenMP threads

MPI task timing breakdown:
Section |  min time  |  avg time  |  max time  |%varavg| %total
---------------------------------------------------------------
Pair    | 1.7983     | 1.9722     | 2.8644     |  17.3 |  5.70
Neigh   | 0.62114    | 0.67119    | 0.9126     |   8.2 |  1.94
Comm    | 0.37733    | 1.5105     | 1.7337     |  25.2 |  4.37
Output  | 19.373     | 20.065     | 30.411     |  59.6 | 57.99
Modify  | 0.025813   | 10.373     | 11.066     |  83.0 | 29.98
Other   |            | 0.007428   |            |       |  0.02

Nlocal:    62.5 ave 68 max 58 min
Histogram: 3 0 2 1 2 0 3 3 1 1
Nghost:    1852.5 ave 1865 max 1842 min
Histogram: 2 1 2 3 1 1 3 1 1 1
Neighs:    0 ave 0 max 0 min
Histogram: 16 0 0 0 0 0 0 0 0 0
FullNghs:  18803.1 ave 20192 max 17217 min
Histogram: 3 0 2 0 1 2 2 2 2 2

Total # of neighbors = 300850
Ave neighs/atom = 300.85
Neighbor list builds = 1000
Dangerous builds not checked
Setting up Verlet run ...
  Unit style    : real
  Current step  : 14000
  Time step     : 1
Per MPI rank memory allocation (min/avg/max) = 4.576 | 4.578 | 4.58 Mbytes
Step Temp E_pair E_mol TotEng Press Volume Lx Ly Lz S/CPU 
   14000    286.30789   -10460.651            0   -9608.0747    1788.3859    784.17665    9.2215651    9.2215651    9.2215651            0 
   14100      298.519   -10503.209            0   -9614.2708   -5372.5394    785.55439    9.2269625    9.2269625    9.2269625    28.060995 
   14200     295.9532   -10498.493            0    -9617.195   -11021.988    786.58072    9.2309791    9.2309791    9.2309791    25.386274 
   14300    293.90902     -10493.7            0   -9618.4894   -11045.998    787.38161     9.234111     9.234111     9.234111    29.186443 
   14400     288.2154    -10476.44            0   -9618.1833   -6334.0796    787.44937    9.2343758    9.2343758    9.2343758    28.558034 
   14500    293.05393   -10490.031            0   -9617.3665   -1022.4774    786.82901    9.2319502    9.2319502    9.2319502    30.411599 
   14600    297.04434   -10500.259            0   -9615.7115    4269.7479     785.8463    9.2281052    9.2281052    9.2281052     20.60717 
   14700     304.7656   -10519.685            0   -9612.1447   -2141.3039    784.87587    9.2243051    9.2243051    9.2243051    24.373601 
   14800    303.51717   -10512.601            0    -9608.779   -4417.4084     783.6913    9.2196622    9.2196622    9.2196622    30.275459 
   14900    288.01269   -10460.846            0   -9603.1932    15915.021    782.24141     9.213973     9.213973     9.213973    34.876232 
   15000    307.80902   -10513.832            0   -9597.2295   -6631.5608    780.91767    9.2087726    9.2087726    9.2087726    32.961508 
Loop time of 35.8785 on 16 procs for 1000 steps with 1000 atoms

Performance: 2.408 ns/day, 9.966 hours/ns, 27.872 timesteps/s
94.3% CPU use with 16 MPI tasks x no OpenMP threads

MPI task timing breakdown:
Section |  min time  |  avg time  |  max time  |%varavg| %total
---------------------------------------------------------------
Pair    | 1.6813     | 1.9431     | 2.7236     |  15.8 |  5.42
Neigh   | 0.60482    | 0.66916    | 0.88949    |   7.7 |  1.87
Comm    | 0.41311    | 1.4134     | 1.7381     |  23.8 |  3.94
Output  | 20.576     | 21.282     | 31.818     |  59.0 | 59.32
Modify  | 0.025738   | 10.563     | 11.27      |  83.7 | 29.44
Other   |            | 0.007423   |            |       |  0.02

Nlocal:    62.5 ave 66 max 59 min
Histogram: 1 3 2 0 2 2 0 3 1 2
Nghost:    1845.75 ave 1863 max 1828 min
Histogram: 1 1 4 0 2 3 1 0 1 3
Neighs:    0 ave 0 max 0 min
Histogram: 16 0 0 0 0 0 0 0 0 0
FullNghs:  18906 ave 20031 max 17759 min
Histogram: 1 3 1 2 1 1 2 2 2 1

Total # of neighbors = 302496
Ave neighs/atom = 302.496
Neighbor list builds = 1000
Dangerous builds not checked
Setting up Verlet run ...
  Unit style    : real
  Current step  : 15000
  Time step     : 1
Per MPI rank memory allocation (min/avg/max) = 4.576 | 4.578 | 4.58 Mbytes
Step Temp E_pair E_mol TotEng Press Volume Lx Ly Lz S/CPU 
   15000    307.80902   -10513.832            0   -9597.2295   -6631.5608    780.91767    9.2087726    9.2087726    9.2087726            0 
   15100    297.09838   -10474.432            0   -9589.7237    2559.2742     779.5342    9.2033313    9.2033313    9.2033313    26.064352 
   15200    299.25297    -10475.34            0   -9584.2161    8722.0353    778.25226    9.1982836    9.1982836    9.1982836    26.543923 
   15300    302.21005   -10479.723            0   -9579.7934    19186.948    777.53218    9.1954458    9.1954458    9.1954458    28.731582 
   15400    301.31308   -10472.792            0   -9575.5331    20752.653    778.02809    9.1974004    9.1974004    9.1974004    26.334469 
   15500    306.99054   -10484.887            0   -9570.7214     5796.049    779.62325    9.2036818    9.2036818    9.2036818    31.086812 
   15600    296.26409   -10447.769            0    -9565.545   -8312.8301    781.71422    9.2119026    9.2119026    9.2119026     28.48206 
   15700    300.69371   -10455.606            0   -9560.1917   -15584.619    783.60429     9.219321     9.219321     9.219321     28.56085 
   15800    317.06406   -10499.593            0   -9555.4306   -4609.0196     785.2651    9.2258297    9.2258297    9.2258297    30.122083 
   15900    303.42874   -10453.395            0   -9549.8363   -14191.588    786.67993    9.2313671    9.2313671    9.2313671    32.083713 
   16000    303.26311   -10445.791            0   -9542.7257   -3840.5097    787.60514    9.2349847    9.2349847    9.2349847    28.250766 
Loop time of 35.0873 on 16 procs for 1000 steps with 1000 atoms

Performance: 2.462 ns/day, 9.746 hours/ns, 28.500 timesteps/s
94.3% CPU use with 16 MPI tasks x no OpenMP threads

MPI task timing breakdown:
Section |  min time  |  avg time  |  max time  |%varavg| %total
---------------------------------------------------------------
Pair    | 1.7395     | 1.9674     | 2.7215     |  16.3 |  5.61
Neigh   | 0.60313    | 0.6701     | 0.88388    |   8.1 |  1.91
Comm    | 0.50503    | 1.4725     | 1.7674     |  24.2 |  4.20
Output  | 19.923     | 20.614     | 30.941     |  58.7 | 58.75
Modify  | 0.027177   | 10.355     | 11.048     |  82.9 | 29.51
Other   |            | 0.007443   |            |       |  0.02

Nlocal:    62.5 ave 68 max 59 min
Histogram: 1 3 2 4 2 1 0 1 1 1
Nghost:    1849.19 ave 1863 max 1832 min
Histogram: 1 0 0 4 1 1 5 3 0 1
Neighs:    0 ave 0 max 0 min
Histogram: 16 0 0 0 0 0 0 0 0 0
FullNghs:  18734.6 ave 20423 max 17603 min
Histogram: 1 3 3 3 2 1 0 1 0 2

Total # of neighbors = 299754
Ave neighs/atom = 299.754
Neighbor list builds = 1000
Dangerous builds not checked
Setting up Verlet run ...
  Unit style    : real
  Current step  : 16000
  Time step     : 1
Per MPI rank memory allocation (min/avg/max) = 4.576 | 4.578 | 4.58 Mbytes
Step Temp E_pair E_mol TotEng Press Volume Lx Ly Lz S/CPU 
   16000    303.26311   -10445.791            0   -9542.7257   -3840.5097    787.60514    9.2349847    9.2349847    9.2349847            0 
   16100    299.76075   -10428.345            0   -9535.7091   -1429.1692    787.94472    9.2363117    9.2363117    9.2363117    27.441897 
   16200    306.22429   -10441.517            0   -9529.6329   -19750.218    787.93518    9.2362745    9.2362745    9.2362745    34.285432 
   16300    296.92834   -10406.998            0   -9522.7957   -3774.2704    787.14785    9.2331971    9.2331971    9.2331971    33.047496 
   16400    305.60254   -10426.157            0   -9516.1245    11236.445     786.4119    9.2303186    9.2303186    9.2303186    29.231866 
   16500    302.94207   -10413.218            0   -9511.1079    10407.854    786.22754    9.2295973    9.2295973    9.2295973    37.940098 
   16600    298.74505   -10396.065            0   -9506.4528    11924.276    786.40425    9.2302887    9.2302887    9.2302887    28.210623 
   16700    312.51913   -10435.699            0     -9505.07     19222.17    787.29479    9.2337715    9.2337715    9.2337715     30.59777 
   16800    314.51063   -10441.915            0   -9505.3564   -3181.1776    788.64905     9.239063     9.239063     9.239063    34.675986 
   16900    311.42654   -10435.551            0   -9508.1764    6217.0762    790.05763    9.2445602    9.2445602    9.2445602    31.057279 
   17000    309.27128   -10432.648            0    -9511.691    4307.2975     791.6373    9.2507175    9.2507175    9.2507175    31.158879 
Loop time of 31.7694 on 16 procs for 1000 steps with 1000 atoms

Performance: 2.720 ns/day, 8.825 hours/ns, 31.477 timesteps/s
94.4% CPU use with 16 MPI tasks x no OpenMP threads

MPI task timing breakdown:
Section |  min time  |  avg time  |  max time  |%varavg| %total
---------------------------------------------------------------
Pair    | 1.7474     | 1.9337     | 2.6407     |  15.0 |  6.09
Neigh   | 0.61574    | 0.66852    | 0.88016    |   7.8 |  2.10
Comm    | 0.51517    | 1.4335     | 1.6725     |  22.7 |  4.51
Output  | 17.631     | 18.264     | 27.698     |  57.0 | 57.49
Modify  | 0.026999   | 9.4626     | 10.095     |  79.2 | 29.79
Other   |            | 0.007419   |            |       |  0.02

Nlocal:    62.5 ave 69 max 57 min
Histogram: 1 2 1 1 3 6 0 0 0 2
Nghost:    1846.25 ave 1859 max 1827 min
Histogram: 1 0 1 1 0 5 3 2 0 3
Neighs:    0 ave 0 max 0 min
Histogram: 16 0 0 0 0 0 0 0 0 0
FullNghs:  18657.2 ave 20670 max 17018 min
Histogram: 1 2 1 3 4 2 1 0 1 1

Total # of neighbors = 298516
Ave neighs/atom = 298.516
Neighbor list builds = 1000
Dangerous builds not checked
Setting up Verlet run ...
  Unit style    : real
  Current step  : 17000
  Time step     : 1
Per MPI rank memory allocation (min/avg/max) = 4.576 | 4.578 | 4.58 Mbytes
Step Temp E_pair E_mol TotEng Press Volume Lx Ly Lz S/CPU 
   17000    309.27128   -10432.648            0    -9511.691    4307.2975     791.6373    9.2507175    9.2507175    9.2507175            0 
   17100    313.60658   -10454.467            0   -9520.6002   -6601.8615    793.76105    9.2589825    9.2589825    9.2589825    28.889782 
   17200    309.38851   -10450.331            0   -9529.0249   -8796.8443     795.9586    9.2675192    9.2675192    9.2675192    32.307691 
   17300    299.28482   -10432.453            0   -9541.2343   -17866.038      797.678    9.2741875    9.2741875    9.2741875    36.010235 
   17400    309.48797   -10477.909            0   -9556.3068   -4790.9528    798.49947      9.27737      9.27737      9.27737    39.040529 
   17500    298.09045   -10456.128            0   -9568.4652   -19829.089    798.41412    9.2770394    9.2770394    9.2770394    40.111741 
   17600    293.61208   -10452.532            0   -9578.2052   -12302.311    796.87376    9.2710696    9.2710696    9.2710696    41.149318 
   17700    292.11606   -10454.783            0   -9584.9111   -12005.174    794.15911      9.26053      9.26053      9.26053    31.222827 
   17800    288.97957   -10450.149            0   -9589.6176   -10471.031    790.65217    9.2468786    9.2468786    9.2468786    37.276782 
   17900    307.25328   -10508.806            0   -9593.8586    9793.5682    786.55879    9.2308933    9.2308933    9.2308933    32.100422 
   18000    304.37077   -10502.202            0    -9595.838    6391.8442    782.99884    9.2169459    9.2169459    9.2169459    34.236231 
Loop time of 28.7399 on 16 procs for 1000 steps with 1000 atoms

Performance: 3.006 ns/day, 7.983 hours/ns, 34.795 timesteps/s
94.4% CPU use with 16 MPI tasks x no OpenMP threads

MPI task timing breakdown:
Section |  min time  |  avg time  |  max time  |%varavg| %total
---------------------------------------------------------------
Pair    | 1.7432     | 1.8924     | 2.5476     |  13.9 |  6.58
Neigh   | 0.61945    | 0.66486    | 0.86854    |   7.2 |  2.31
Comm    | 0.58069    | 1.4398     | 1.6306     |  20.8 |  5.01
Output  | 16.264     | 16.794     | 24.705     |  49.8 | 58.44
Modify  | 0.029728   | 7.9411     | 8.4725     |  72.5 | 27.63
Other   |            | 0.00735    |            |       |  0.03

Nlocal:    62.5 ave 67 max 58 min
Histogram: 2 1 2 2 0 2 3 1 1 2
Nghost:    1853.31 ave 1878 max 1832 min
Histogram: 1 1 4 2 2 1 1 0 3 1
Neighs:    0 ave 0 max 0 min
Histogram: 16 0 0 0 0 0 0 0 0 0
FullNghs:  18862.6 ave 20466 max 17445 min
Histogram: 3 0 3 1 1 2 1 2 1 2

Total # of neighbors = 301802
Ave neighs/atom = 301.802
Neighbor list builds = 1000
Dangerous builds not checked
Setting up Verlet run ...
  Unit style    : real
  Current step  : 18000
  Time step     : 1
Per MPI rank memory allocation (min/avg/max) = 4.576 | 4.578 | 4.58 Mbytes
Step Temp E_pair E_mol TotEng Press Volume Lx Ly Lz S/CPU 
   18000    304.37077   -10502.202            0    -9595.838    6391.8442    782.99884    9.2169459    9.2169459    9.2169459            0 
   18100    300.11574   -10491.808            0   -9598.1145   -4513.2065     780.1168    9.2056235    9.2056235    9.2056235    33.045624 
   18200    308.40911   -10520.829            0   -9602.4398   -3477.9286    777.36157    9.1947732    9.1947732    9.1947732    32.909709 
   18300    306.38397   -10518.063            0   -9605.7042     6058.562    774.38638    9.1830278    9.1830278    9.1830278    26.400668 
   18400     298.5015    -10498.24            0   -9609.3533    8723.9092    771.76641    9.1726599    9.1726599    9.1726599     25.41887 
   18500    285.48984   -10463.729            0   -9613.5888    21643.099    769.82405    9.1649582    9.1649582    9.1649582    34.248966 
   18600    295.33546   -10497.407            0   -9617.9489    5068.5536    769.11438    9.1621411    9.1621411    9.1621411    29.982691 
   18700    290.58492   -10488.221            0   -9622.9088     10330.67    769.51076    9.1637148    9.1637148    9.1637148    60.200382 
   18800    295.38253   -10507.361            0   -9627.7619     6303.588    770.98978     9.169582     9.169582     9.169582    62.082584 
   18900    297.08429   -10517.934            0   -9633.2673     18892.68    773.29123    9.1786969    9.1786969    9.1786969    48.940479 
   19000    295.96074   -10519.255            0   -9637.9343    2788.7269    775.99373     9.189377     9.189377     9.189377    52.286712 
Loop time of 27.2694 on 16 procs for 1000 steps with 1000 atoms

Performance: 3.168 ns/day, 7.575 hours/ns, 36.671 timesteps/s
94.5% CPU use with 16 MPI tasks x no OpenMP threads

MPI task timing breakdown:
Section |  min time  |  avg time  |  max time  |%varavg| %total
---------------------------------------------------------------
Pair    | 1.8573     | 2.0115     | 2.8239     |  16.6 |  7.38
Neigh   | 0.62763    | 0.67541    | 0.912      |   8.4 |  2.48
Comm    | 0.4465     | 1.4953     | 1.6931     |  24.9 |  5.48
Output  | 14.975     | 15.483     | 23.052     |  49.7 | 56.78
Modify  | 0.025958   | 7.5966     | 8.1053     |  70.9 | 27.86
Other   |            | 0.007483   |            |       |  0.03

Nlocal:    62.5 ave 66 max 58 min
Histogram: 2 2 1 0 0 3 1 2 1 4
Nghost:    1873.62 ave 1891 max 1854 min
Histogram: 1 0 1 5 1 0 4 2 0 2
Neighs:    0 ave 0 max 0 min
Histogram: 16 0 0 0 0 0 0 0 0 0
FullNghs:  19044.9 ave 20415 max 17569 min
Histogram: 3 1 1 1 0 2 3 1 2 2

Total # of neighbors = 304718
Ave neighs/atom = 304.718
Neighbor list builds = 1000
Dangerous builds not checked
Setting up Verlet run ...
  Unit style    : real
  Current step  : 19000
  Time step     : 1
Per MPI rank memory allocation (min/avg/max) = 4.576 | 4.578 | 4.58 Mbytes
Step Temp E_pair E_mol TotEng Press Volume Lx Ly Lz S/CPU 
   19000    295.96074   -10519.255            0   -9637.9343    2788.7269    775.99373     9.189377     9.189377     9.189377            0 
   19100    290.67665   -10508.513            0   -9642.9277    7052.8857    778.92778    9.2009442    9.2009442    9.2009442    59.134167 
   19200      296.555   -10528.706            0   -9645.6161    2965.1516    781.90131    9.2126375    9.2126375    9.2126375    45.342658 
   19300    280.18176    -10480.29            0   -9645.9563   -1063.8013    784.47791    9.2227458    9.2227458    9.2227458    63.870529 
   19400    285.46916   -10495.353            0   -9645.2749   -12263.779    786.22809    9.2295994    9.2295994    9.2295994    53.121189 
   19500    296.47723   -10526.473            0    -9643.614   -14145.586    787.06986    9.2328921    9.2328921    9.2328921    31.377847 
   19600    289.39208   -10497.193            0   -9635.4327   -16021.298    787.23074    9.2335211    9.2335211    9.2335211    48.071085 
   19700     279.8304   -10456.284            0   -9622.9973   -8202.1738    786.67785     9.231359     9.231359     9.231359    33.092904 
   19800    306.72872   -10523.425            0   -9610.0397    3097.9889    785.80408    9.2279399    9.2279399    9.2279399    39.600635 
   19900    309.85066   -10517.649            0   -9594.9669   -2964.1514    784.75436    9.2238291    9.2238291    9.2238291    47.653391 
   20000    294.07367    -10458.35            0   -9582.6484    14178.765    783.71401    9.2197513    9.2197513    9.2197513    56.259431 
Loop time of 22.0349 on 16 procs for 1000 steps with 1000 atoms

Performance: 3.921 ns/day, 6.121 hours/ns, 45.383 timesteps/s
94.7% CPU use with 16 MPI tasks x no OpenMP threads

MPI task timing breakdown:
Section |  min time  |  avg time  |  max time  |%varavg| %total
---------------------------------------------------------------
Pair    | 1.6815     | 1.9491     | 2.7359     |  16.8 |  8.85
Neigh   | 0.60117    | 0.66953    | 0.89139    |   8.4 |  3.04
Comm    | 0.43468    | 1.4432     | 1.7783     |  25.3 |  6.55
Output  | 12.512     | 12.854     | 17.938     |  36.6 | 58.33
Modify  | 0.026149   | 5.1116     | 5.4544     |  58.1 | 23.20
Other   |            | 0.007441   |            |       |  0.03

Nlocal:    62.5 ave 66 max 58 min
Histogram: 1 1 1 2 0 2 3 4 0 2
Nghost:    1867.25 ave 1884 max 1851 min
Histogram: 1 2 2 1 2 1 3 3 0 1
Neighs:    0 ave 0 max 0 min
Histogram: 16 0 0 0 0 0 0 0 0 0
FullNghs:  18818.9 ave 19896 max 17475 min
Histogram: 1 1 2 1 1 4 0 4 0 2

Total # of neighbors = 301102
Ave neighs/atom = 301.102
Neighbor list builds = 1000
Dangerous builds not checked
Setting up Verlet run ...
  Unit style    : real
  Current step  : 20000
  Time step     : 1
Per MPI rank memory allocation (min/avg/max) = 4.576 | 4.578 | 4.58 Mbytes
Step Temp E_pair E_mol TotEng Press Volume Lx Ly Lz S/CPU 
   20000    294.07367    -10458.35            0   -9582.6484    14178.765    783.71401    9.2197513    9.2197513    9.2197513            0 
   20100    301.51968   -10471.791            0   -9573.9173   -2736.8126    783.13271    9.2174712    9.2174712    9.2174712     66.54897 
   20200    314.10729   -10504.438            0   -9569.0805    13627.748    782.83316    9.2162958    9.2162958    9.2162958    41.446458 
   20300    308.00353   -10481.617            0   -9564.4351    6625.3295     783.2024    9.2177446    9.2177446    9.2177446    53.526483 
   20400    303.73276   -10465.863            0   -9561.3988    1143.2718     784.1894     9.221615     9.221615     9.221615    48.085285 
   20500    293.42775   -10432.822            0   -9559.0446   -3774.2402    785.45799     9.226585     9.226585     9.226585    36.779492 
   20600    301.41033   -10457.598            0   -9560.0496    9094.0722    786.78077    9.2317616    9.2317616    9.2317616    48.210801 
   20700    298.76878   -10450.445            0   -9560.7623   -715.31036    788.20421    9.2373256    9.2373256    9.2373256    39.786185 
   20800    300.63995   -10458.081            0   -9562.8266    7233.4794    789.58321    9.2427095    9.2427095    9.2427095    40.332352 
   20900    311.82029   -10495.513            0   -9566.9651    6807.4265    790.70214    9.2470734    9.2470734    9.2470734      43.9034 
   21000    306.32191    -10484.66            0   -9572.4861   -16223.091    791.46667    9.2500528    9.2500528    9.2500528    36.109334 
Loop time of 22.6964 on 16 procs for 1000 steps with 1000 atoms

Performance: 3.807 ns/day, 6.305 hours/ns, 44.060 timesteps/s
94.7% CPU use with 16 MPI tasks x no OpenMP threads

MPI task timing breakdown:
Section |  min time  |  avg time  |  max time  |%varavg| %total
---------------------------------------------------------------
Pair    | 1.6787     | 1.9259     | 2.8207     |  18.3 |  8.49
Neigh   | 0.59917    | 0.66418    | 0.91007    |   8.8 |  2.93
Comm    | 0.35174    | 1.4919     | 1.8027     |  26.6 |  6.57
Output  | 13.172     | 13.513     | 18.578     |  35.6 | 59.54
Modify  | 0.026899   | 5.0943     | 5.4367     |  58.0 | 22.45
Other   |            | 0.007388   |            |       |  0.03

Nlocal:    62.5 ave 67 max 58 min
Histogram: 1 1 2 0 5 2 2 0 2 1
Nghost:    1839.25 ave 1859 max 1809 min
Histogram: 1 0 2 0 1 4 1 2 3 2
Neighs:    0 ave 0 max 0 min
Histogram: 16 0 0 0 0 0 0 0 0 0
FullNghs:  18646.6 ave 19948 max 17342 min
Histogram: 1 2 1 0 5 2 2 0 0 3

Total # of neighbors = 298346
Ave neighs/atom = 298.346
Neighbor list builds = 1000
Dangerous builds not checked
Setting up Verlet run ...
  Unit style    : real
  Current step  : 21000
  Time step     : 1
Per MPI rank memory allocation (min/avg/max) = 4.576 | 4.578 | 4.581 Mbytes
Step Temp E_pair E_mol TotEng Press Volume Lx Ly Lz S/CPU 
   21000    306.32191    -10484.66            0   -9572.4861   -16223.091    791.46667    9.2500528    9.2500528    9.2500528            0 
   21100    310.63774   -10507.835            0   -9582.8093   -15115.842    791.53095    9.2503032    9.2503032    9.2503032     47.08809 
   21200     304.5719   -10500.464            0   -9593.5008    -12116.93    790.59412    9.2466523    9.2466523    9.2466523     53.62746 
   21300    300.88875   -10500.516            0   -9604.5205   -27308.438    788.74767    9.2394481    9.2394481    9.2394481    42.405487 
   21400    298.16994   -10503.727            0    -9615.828    -9518.348    785.64936    9.2273343    9.2273343    9.2273343    62.683252 
   21500    301.19641   -10523.658            0   -9626.7464   -7946.7057    781.81522    9.2122993    9.2122993    9.2122993    58.537185 
   21600     295.3044   -10513.186            0   -9633.8196    10374.994    777.50993    9.1953581    9.1953581    9.1953581    47.017917 
   21700    296.12603   -10521.664            0   -9639.8517    10628.365    773.48054    9.1794458    9.1794458    9.1794458    44.306439 
   21800    297.40619   -10529.299            0   -9643.6737    10608.937    769.84328    9.1650346    9.1650346    9.1650346    41.329478 
   21900    295.83147   -10528.785            0   -9647.8494    25208.458    767.28018     9.154852     9.154852     9.154852    54.409795 
   22000    303.51411   -10554.443            0   -9650.6301    25397.485    766.46811    9.1516211    9.1516211    9.1516211    58.364392 
Loop time of 20.005 on 16 procs for 1000 steps with 1000 atoms

Performance: 4.319 ns/day, 5.557 hours/ns, 49.988 timesteps/s
94.8% CPU use with 16 MPI tasks x no OpenMP threads

MPI task timing breakdown:
Section |  min time  |  avg time  |  max time  |%varavg| %total
---------------------------------------------------------------
Pair    | 1.7645     | 1.9659     | 2.783      |  16.6 |  9.83
Neigh   | 0.60996    | 0.66936    | 0.89879    |   8.1 |  3.35
Comm    | 0.41334    | 1.4596     | 1.7188     |  24.7 |  7.30
Output  | 10.694     | 11.021     | 15.875     |  37.8 | 55.09
Modify  | 0.025806   | 4.8817     | 5.21       |  56.7 | 24.40
Other   |            | 0.007418   |            |       |  0.04

Nlocal:    62.5 ave 66 max 56 min
Histogram: 1 0 1 0 0 3 1 3 4 3
Nghost:    1897.19 ave 1929 max 1877 min
Histogram: 3 1 5 1 1 1 1 1 0 2
Neighs:    0 ave 0 max 0 min
Histogram: 16 0 0 0 0 0 0 0 0 0
FullNghs:  19260.6 ave 20360 max 17106 min
Histogram: 1 1 0 0 2 2 0 4 4 2

Total # of neighbors = 308170
Ave neighs/atom = 308.17
Neighbor list builds = 1000
Dangerous builds not checked
Setting up Verlet run ...
  Unit style    : real
  Current step  : 22000
  Time step     : 1
Per MPI rank memory allocation (min/avg/max) = 4.576 | 4.578 | 4.581 Mbytes
Step Temp E_pair E_mol TotEng Press Volume Lx Ly Lz S/CPU 
   22000    303.51411   -10554.443            0   -9650.6301    25397.485    766.46811    9.1516211    9.1516211    9.1516211            0 
   22100    300.93793   -10550.101            0   -9653.9596    36992.525    767.46362    9.1555815    9.1555815    9.1555815    24.674132 
   22200    299.79938    -10549.82            0    -9657.069    17687.209    770.37867    9.1671587    9.1671587    9.1671587    52.600416 
   22300    302.32084   -10560.051            0   -9659.7913     4006.112    774.54336    9.1836484    9.1836484    9.1836484    44.588105 
   22400    295.93469   -10541.906            0   -9660.6628    8518.8738    779.39847    9.2027971    9.2027971    9.2027971    42.526102 
   22500    302.73224   -10563.852            0   -9662.3669   -6270.5001    784.29251    9.2220192    9.2220192    9.2220192    60.490011 
   22600    283.56836   -10504.078            0   -9659.6598   -7571.8724    788.48578    9.2384254    9.2384254    9.2384254    49.537231 
   22700    295.92997   -10539.105            0   -9657.8763   -7666.1505    791.46223    9.2500355    9.2500355    9.2500355    50.427553 
   22800    303.69222    -10559.82            0   -9655.4765   -23508.887    792.97906    9.2559409    9.2559409    9.2559409    61.907451 
   22900    280.82521   -10485.148            0   -9648.8989   -9856.6496    792.79117    9.2552098    9.2552098    9.2552098    63.259504 
   23000    298.74234   -10533.799            0   -9644.1953   -24138.724    791.52046    9.2502623    9.2502623    9.2502623    51.410068 
Loop time of 21.3444 on 16 procs for 1000 steps with 1000 atoms

Performance: 4.048 ns/day, 5.929 hours/ns, 46.851 timesteps/s
94.7% CPU use with 16 MPI tasks x no OpenMP threads

MPI task timing breakdown:
Section |  min time  |  avg time  |  max time  |%varavg| %total
---------------------------------------------------------------
Pair    | 1.7327     | 1.959      | 2.7163     |  14.6 |  9.18
Neigh   | 0.60684    | 0.6719     | 0.90027    |   7.5 |  3.15
Comm    | 0.4386     | 1.4244     | 1.7185     |  22.2 |  6.67
Output  | 11.176     | 11.559     | 17.254     |  43.3 | 54.15
Modify  | 0.025881   | 5.7226     | 6.106      |  61.5 | 26.81
Other   |            | 0.00745    |            |       |  0.03

Nlocal:    62.5 ave 68 max 57 min
Histogram: 1 2 3 0 2 2 2 1 1 2
Nghost:    1839.38 ave 1864 max 1814 min
Histogram: 1 1 1 2 2 4 1 2 0 2
Neighs:    0 ave 0 max 0 min
Histogram: 16 0 0 0 0 0 0 0 0 0
FullNghs:  18635.5 ave 20417 max 16818 min
Histogram: 1 0 4 1 2 2 2 1 1 2

Total # of neighbors = 298168
Ave neighs/atom = 298.168
Neighbor list builds = 1000
Dangerous builds not checked
Setting up Verlet run ...
  Unit style    : real
  Current step  : 23000
  Time step     : 1
Per MPI rank memory allocation (min/avg/max) = 4.577 | 4.578 | 4.581 Mbytes
Step Temp E_pair E_mol TotEng Press Volume Lx Ly Lz S/CPU 
   23000    298.74234   -10533.799            0   -9644.1953   -24138.724    791.52046    9.2502623    9.2502623    9.2502623            0 
   23100    303.37837   -10538.859            0   -9635.4498   -14467.285    789.03925    9.2405865    9.2405865    9.2405865    53.925135 
   23200    295.80055   -10505.737            0   -9624.8935     -3899.44    785.87872    9.2282321    9.2282321    9.2282321    50.634516 
   23300    299.39652   -10507.355            0   -9615.8031   -1683.2012    782.38289    9.2145284    9.2145284    9.2145284    46.623155 
   23400    297.63351    -10492.05            0   -9605.7479    12804.209    779.07954    9.2015417    9.2015417    9.2015417    57.490851 
   23500     304.2681     -10504.2            0   -9598.1416     15744.83    776.78312     9.192492     9.192492     9.192492     55.54002 
   23600    291.14033   -10460.286            0   -9593.3203    3303.4074    775.65598    9.1880436    9.1880436    9.1880436    45.921674 
   23700    299.87852   -10484.374            0   -9591.3871    20945.089     775.6706    9.1881013    9.1881013    9.1881013     49.50148 
   23800    305.90879   -10501.542            0   -9590.5979    16586.032    776.86668    9.1928216    9.1928216    9.1928216    50.205006 
   23900    299.77964   -10482.158            0   -9589.4652    11940.152     779.1578    9.2018498    9.2018498    9.2018498    51.316562 
   24000    298.85455    -10478.55            0   -9588.6123   -1145.0959    782.15206    9.2136221    9.2136221    9.2136221    45.479302 
Loop time of 19.8512 on 16 procs for 1000 steps with 1000 atoms

Performance: 4.352 ns/day, 5.514 hours/ns, 50.375 timesteps/s
94.8% CPU use with 16 MPI tasks x no OpenMP threads

MPI task timing breakdown:
Section |  min time  |  avg time  |  max time  |%varavg| %total
---------------------------------------------------------------
Pair    | 1.7394     | 1.9553     | 2.7733     |  16.2 |  9.85
Neigh   | 0.60521    | 0.66748    | 0.89396    |   7.6 |  3.36
Comm    | 0.38112    | 1.4258     | 1.7054     |  24.2 |  7.18
Output  | 10.079     | 10.438     | 15.768     |  42.6 | 52.58
Modify  | 0.026165   | 5.3572     | 5.7163     |  59.5 | 26.99
Other   |            | 0.007419   |            |       |  0.04

Nlocal:    62.5 ave 66 max 56 min
Histogram: 1 0 0 0 4 2 0 1 4 4
Nghost:    1866.38 ave 1885 max 1850 min
Histogram: 1 1 3 3 1 2 1 2 1 1
Neighs:    0 ave 0 max 0 min
Histogram: 16 0 0 0 0 0 0 0 0 0
FullNghs:  18863.5 ave 20225 max 16841 min
Histogram: 1 0 0 3 3 0 1 5 1 2

Total # of neighbors = 301816
Ave neighs/atom = 301.816
Neighbor list builds = 1000
Dangerous builds not checked
Setting up Verlet run ...
  Unit style    : real
  Current step  : 24000
  Time step     : 1
Per MPI rank memory allocation (min/avg/max) = 4.577 | 4.578 | 4.581 Mbytes
Step Temp E_pair E_mol TotEng Press Volume Lx Ly Lz S/CPU 
   24000    298.85455    -10478.55            0   -9588.6123   -1145.0959    782.15206    9.2136221    9.2136221    9.2136221            0 
   24100    298.31256   -10476.669            0   -9588.3449    2903.5763    785.57913    9.2270593    9.2270593    9.2270593    44.166516 
   24200    304.41567   -10495.215            0   -9588.7167   -6679.2383    788.89266    9.2400142    9.2400142    9.2400142    44.145414 
   24300    302.15315   -10487.853            0   -9588.0927   -6418.7059    791.27723    9.2493147    9.2493147    9.2493147    55.666424 
   24400    295.25408   -10466.632            0    -9587.416   -12317.363    792.46274    9.2539316    9.2539316    9.2539316    55.344608 
   24500    294.77923   -10464.573            0   -9586.7708   -17254.624    792.70555    9.2548766    9.2548766    9.2548766    50.872516 
   24600    310.91058   -10512.416            0   -9586.5771   -20618.222    792.08163    9.2524479    9.2524479    9.2524479    58.784968 
   24700    302.10535   -10485.694            0    -9586.076   -18511.597    790.63089    9.2467957    9.2467957    9.2467957    45.909804 
   24800    293.93691   -10459.851            0   -9584.5569    -5244.876    788.13825    9.2370679    9.2370679    9.2370679    45.057834 
   24900    301.47353   -10480.883            0   -9583.1461     9897.087    784.87545    9.2243034    9.2243034    9.2243034    60.139913 
   25000    292.76151   -10451.607            0   -9579.8127    446.62238    782.18018    9.2137325    9.2137325    9.2137325      51.3394 
Loop time of 19.8077 on 16 procs for 1000 steps with 1000 atoms

Performance: 4.362 ns/day, 5.502 hours/ns, 50.485 timesteps/s
94.8% CPU use with 16 MPI tasks x no OpenMP threads

MPI task timing breakdown:
Section |  min time  |  avg time  |  max time  |%varavg| %total
---------------------------------------------------------------
Pair    | 1.7152     | 1.9344     | 2.7977     |  17.1 |  9.77
Neigh   | 0.60923    | 0.67081    | 0.91826    |   8.3 |  3.39
Comm    | 0.38322    | 1.4934     | 1.7673     |  24.9 |  7.54
Output  | 10.788     | 11.097     | 15.675     |  35.5 | 56.02
Modify  | 0.025023   | 4.6048     | 4.9142     |  55.1 | 23.25
Other   |            | 0.007396   |            |       |  0.04

Nlocal:    62.5 ave 67 max 58 min
Histogram: 1 1 1 4 1 2 2 2 1 1
Nghost:    1858.31 ave 1880 max 1841 min
Histogram: 1 5 1 1 1 1 2 2 1 1
Neighs:    0 ave 0 max 0 min
Histogram: 16 0 0 0 0 0 0 0 0 0
FullNghs:  18861.6 ave 20255 max 17353 min
Histogram: 1 1 1 4 1 1 2 1 3 1

Total # of neighbors = 301786
Ave neighs/atom = 301.786
Neighbor list builds = 1000
Dangerous builds not checked
Setting up Verlet run ...
  Unit style    : real
  Current step  : 25000
  Time step     : 1
Per MPI rank memory allocation (min/avg/max) = 4.577 | 4.578 | 4.581 Mbytes
Step Temp E_pair E_mol TotEng Press Volume Lx Ly Lz S/CPU 
   25000    292.76151   -10451.607            0   -9579.8127    446.62238    782.18018    9.2137325    9.2137325    9.2137325            0 
   25100    296.78659   -10460.403            0   -9576.6231    18608.099     780.0029    9.2051755    9.2051755    9.2051755    53.366757 
   25200    290.16394   -10436.821            0   -9572.7619    13115.759    778.54498    9.1994367    9.1994367    9.1994367      62.5083 
   25300    308.56242   -10488.991            0   -9570.1452    2091.0009    777.86206    9.1967461    9.1967461    9.1967461    60.804616 
   25400    304.45426   -10470.989            0   -9564.3763    10181.462    777.94493    9.1970727    9.1970727    9.1970727      48.8014 
   25500    298.66824   -10449.694            0   -9560.3113    9513.1808    778.80073    9.2004439    9.2004439    9.2004439    59.111914 
   25600    302.52224   -10457.052            0   -9556.1927    14788.451       780.42     9.206816     9.206816     9.206816    59.054853 
   25700     307.5856   -10468.471            0   -9552.5339     8156.824    783.03555      9.21709      9.21709      9.21709    46.662498 
   25800    302.16115   -10447.397            0   -9547.6127   -10985.629    786.07524    9.2290013    9.2290013    9.2290013    58.072917 
   25900    304.54978   -10452.819            0   -9545.9215    382.32377    788.37361    9.2379873    9.2379873    9.2379873    55.242453 
   26000    295.27546   -10421.897            0   -9542.6168   -5564.3234    790.51396    9.2463398    9.2463398    9.2463398     52.64398 
Loop time of 18.1272 on 16 procs for 1000 steps with 1000 atoms

Performance: 4.766 ns/day, 5.035 hours/ns, 55.166 timesteps/s
94.9% CPU use with 16 MPI tasks x no OpenMP threads

MPI task timing breakdown:
Section |  min time  |  avg time  |  max time  |%varavg| %total
---------------------------------------------------------------
Pair    | 1.7461     | 1.9618     | 2.7424     |  16.3 | 10.82
Neigh   | 0.60769    | 0.66851    | 0.88851    |   7.7 |  3.69
Comm    | 0.48945    | 1.4899     | 1.7657     |  23.8 |  8.22
Output  | 9.5801     | 9.8577     | 13.972     |  33.8 | 54.38
Modify  | 0.02601    | 4.1418     | 4.4202     |  52.2 | 22.85
Other   |            | 0.007397   |            |       |  0.04

Nlocal:    62.5 ave 67 max 56 min
Histogram: 1 1 0 3 1 1 1 2 5 1
Nghost:    1863.56 ave 1889 max 1850 min
Histogram: 3 4 2 1 0 2 2 1 0 1
Neighs:    0 ave 0 max 0 min
Histogram: 16 0 0 0 0 0 0 0 0 0
FullNghs:  18663.4 ave 19912 max 16604 min
Histogram: 1 0 1 3 0 2 1 2 5 1

Total # of neighbors = 298614
Ave neighs/atom = 298.614
Neighbor list builds = 1000
Dangerous builds not checked
Setting up Verlet run ...
  Unit style    : real
  Current step  : 26000
  Time step     : 1
Per MPI rank memory allocation (min/avg/max) = 4.577 | 4.578 | 4.581 Mbytes
Step Temp E_pair E_mol TotEng Press Volume Lx Ly Lz S/CPU 
   26000    295.27546   -10421.897            0   -9542.6168   -5564.3234    790.51396    9.2463398    9.2463398    9.2463398            0 
   26100    300.12731   -10433.876            0    -9540.148   -5237.4942    792.07583    9.2524253    9.2524253    9.2524253    49.000091 
   26200    296.91222   -10424.323            0    -9540.169   -14403.195    793.01604    9.2560848    9.2560848    9.2560848    62.493356 
   26300    304.32583   -10446.161            0   -9539.9306    5825.7383    793.03225    9.2561478    9.2561478    9.2561478    47.107204 
   26400    302.28903   -10439.945            0   -9539.7803   -1117.0907    792.44434      9.25386      9.25386      9.25386    59.811336 
   26500    302.34597   -10441.929            0   -9541.5944   -8502.6277    791.11709    9.2486907    9.2486907    9.2486907    55.307466 
   26600    310.25607   -10469.351            0   -9545.4614    -11630.58     788.7736    9.2395493    9.2395493    9.2395493    43.515691 
   26700     302.9838   -10453.988            0   -9551.7542   -8191.4473    785.88398    9.2282527    9.2282527    9.2282527    53.790841 
   26800    302.36225    -10460.15            0   -9559.7673   -11389.513    782.54845    9.2151783    9.2151783    9.2151783    64.992499 
   26900    295.95732   -10453.547            0   -9572.2364    4654.6678     778.8663    9.2007021    9.2007021    9.2007021    49.938342 
   27000     301.9588   -10484.353            0   -9585.1708    7721.3989    775.33416    9.1867727    9.1867727    9.1867727    61.124094 
Loop time of 18.578 on 16 procs for 1000 steps with 1000 atoms

Performance: 4.651 ns/day, 5.161 hours/ns, 53.827 timesteps/s
94.8% CPU use with 16 MPI tasks x no OpenMP threads

MPI task timing breakdown:
Section |  min time  |  avg time  |  max time  |%varavg| %total
---------------------------------------------------------------
Pair    | 1.7245     | 1.9196     | 2.5589     |  13.7 | 10.33
Neigh   | 0.59906    | 0.6636     | 0.85243    |   6.7 |  3.57
Comm    | 0.55962    | 1.3883     | 1.6475     |  20.7 |  7.47
Output  | 9.8091     | 10.11      | 14.572     |  36.2 | 54.42
Modify  | 0.026478   | 4.4893     | 4.7904     |  54.4 | 24.16
Other   |            | 0.007389   |            |       |  0.04

Nlocal:    62.5 ave 70 max 59 min
Histogram: 5 3 3 0 1 0 1 1 1 1
Nghost:    1868.06 ave 1898 max 1830 min
Histogram: 1 0 1 1 2 4 2 4 0 1
Neighs:    0 ave 0 max 0 min
Histogram: 16 0 0 0 0 0 0 0 0 0
FullNghs:  19032.9 ave 21483 max 17825 min
Histogram: 4 4 2 1 1 0 2 0 1 1

Total # of neighbors = 304526
Ave neighs/atom = 304.526
Neighbor list builds = 1000
Dangerous builds not checked
Setting up Verlet run ...
  Unit style    : real
  Current step  : 27000
  Time step     : 1
Per MPI rank memory allocation (min/avg/max) = 4.577 | 4.578 | 4.581 Mbytes
Step Temp E_pair E_mol TotEng Press Volume Lx Ly Lz S/CPU 
   27000     301.9588   -10484.353            0   -9585.1708    7721.3989    775.33416    9.1867727    9.1867727    9.1867727            0 
   27100    312.37414   -10528.812            0   -9598.6155    2965.0209    772.58575    9.1759048    9.1759048    9.1759048    47.608634 
   27200    298.40461   -10497.894            0   -9609.2965    29710.839    770.58159    9.1679635    9.1679635    9.1679635    55.696255 
   27300    300.49137   -10512.607            0   -9617.7947    29562.781     769.5291    9.1637876    9.1637876    9.1637876    49.028972 
   27400    297.72441   -10510.966            0   -9624.3934    17198.273    769.75241     9.164674     9.164674     9.164674    62.173578 
   27500    302.30774   -10529.878            0   -9629.6575    14682.346    771.18906     9.170372     9.170372     9.170372     50.64634 
   27600    291.26966   -10498.705            0   -9631.3532    8398.8531    773.41229    9.1791759    9.1791759    9.1791759    54.283226 
   27700    301.23692   -10531.945            0   -9634.9124    5096.6178    776.17405    9.1900888    9.1900888    9.1900888    56.563743 
   27800    304.25437   -10542.423            0   -9636.4051    772.27272    779.53244    9.2033244    9.2033244    9.2033244    49.286495 
   27900    301.02406   -10533.845            0   -9637.4465    7211.6102    783.29459    9.2181062    9.2181062    9.2181062    58.893855 
   28000    299.57719   -10528.572            0   -9636.4822   -2045.0655    787.26954    9.2336729    9.2336729    9.2336729    60.307896 
Loop time of 18.5136 on 16 procs for 1000 steps with 1000 atoms

Performance: 4.667 ns/day, 5.143 hours/ns, 54.014 timesteps/s
[...]
  823700    314.94268    -11501.34            0   -10563.495    4598.2384    736.76064    9.0318241    9.0318241    9.0318241    52.338727 
  823800    302.10403   -11457.169            0   -10557.555    -3195.495    736.34283    9.0301165    9.0301165    9.0301165    47.205992 
  823900    302.92077   -11456.777            0   -10554.731    1283.5914    736.16031    9.0293703    9.0293703    9.0293703     39.36219 
  824000    305.34664   -11462.534            0   -10553.264    8392.3599    736.34651    9.0301316    9.0301316    9.0301316    40.870117 
  824100    306.46203   -11467.045            0   -10554.453    4984.3566    736.66003     9.031413     9.031413     9.031413    38.851074 
  824200    308.06636   -11475.012            0   -10557.643    3585.6064    737.06364    9.0330621    9.0330621    9.0330621    45.029137 
  824300    303.65348   -11464.721            0   -10560.493   -8322.3517     737.4607    9.0346838    9.0346838    9.0346838    36.654823 
  824400    301.09333   -11461.436            0   -10564.832     471.2799    737.62129    9.0353396    9.0353396    9.0353396    39.436262 
  824500    304.53267   -11478.528            0   -10571.681    -1671.759    737.52405    9.0349426    9.0349426    9.0349426     36.93075 
  824600    302.21771   -11478.126            0   -10578.173   -8423.5688    737.22884    9.0337369    9.0337369    9.0337369    41.141889 
  824700    301.60149   -11484.706            0   -10586.588   -2662.8903    736.62983    9.0312896    9.0312896    9.0312896     39.25908 
  824800    294.87219   -11471.878            0   -10593.799   -1238.6043    735.80764    9.0279282    9.0279282    9.0279282    47.318411 
  824900    313.64187   -11538.946            0   -10604.974     9660.597    735.06395    9.0248857    9.0248857    9.0248857     43.79379 
  825000    312.03773   -11542.513            0   -10613.318    7996.9811    734.71188    9.0234446    9.0234446    9.0234446    45.069937 
  825100    301.56582   -11517.699            0   -10619.688    2787.1885    734.74939    9.0235981    9.0235981    9.0235981    42.790014 
  825200    294.14082    -11500.88            0   -10624.978    7358.5044    735.22619    9.0255496    9.0255496    9.0255496    44.749355 
  825300    303.91368   -11533.944            0   -10628.941    8659.9424    736.10383    9.0291394    9.0291394    9.0291394    39.511516 
  825400     294.0128   -11506.196            0   -10630.676   -5970.7249    737.12547    9.0333147    9.0333147    9.0333147    49.769947 
  825500    303.32418   -11534.635            0   -10631.387   -13580.431    737.90757    9.0365084    9.0365084    9.0365084    41.426005 
  825600    299.07013   -11521.041            0   -10630.462   -12595.595    738.14263    9.0374678    9.0374678    9.0374678    48.102475 
  825700    293.15522   -11501.579            0   -10628.613   -5413.7351    737.73198    9.0357915    9.0357915    9.0357915    45.957173 
  825800     296.7982   -11511.426            0   -10627.612    1676.8809    736.79629    9.0319698    9.0319698    9.0319698    41.435251 
  825900    288.37698   -11485.337            0   -10626.599    7389.9107    735.62028    9.0271619    9.0271619    9.0271619    50.362093 
  826000    296.63553   -11509.111            0   -10625.781    -1461.416    734.43396    9.0223066    9.0223066    9.0223066    43.795023 
  826100    294.34872   -11501.337            0   -10624.816    12494.535    733.46634    9.0183426    9.0183426    9.0183426    47.864206 
  826200    302.17276   -11524.735            0   -10624.916    9236.6582    733.05985    9.0166763    9.0166763    9.0166763    48.439859 
  826300    306.09651   -11536.319            0   -10624.816    11400.107    733.51933    9.0185598    9.0185598    9.0185598    23.117615 
  826400    296.32867   -11505.282            0   -10622.865    3330.7154    734.82903    9.0239241    9.0239241    9.0239241    37.291948 
  826500    299.59929   -11515.284            0   -10623.128   -5616.5397    736.47099    9.0306404    9.0306404    9.0306404    51.203683 
  826600    304.61037   -11529.047            0   -10621.969   -8439.5067    737.82532    9.0361726    9.0361726    9.0361726    39.120756 
  826700    294.03753   -11494.387            0   -10618.793   -8341.5351    738.65643    9.0395642    9.0395642    9.0395642    43.276695 
  826800    294.15543   -11491.923            0   -10615.978   -11700.169    738.70351    9.0397563    9.0397563    9.0397563    36.344654 
  826900    307.85419   -11531.111            0   -10614.374   -15860.323    737.87289    9.0363668    9.0363668    9.0363668    37.401973 
  827000     295.7646   -11491.202            0   -10610.465    2440.2333    736.23733    9.0296853    9.0296853    9.0296853     50.16915 
  827100    304.36597   -11513.014            0   -10606.664    -5278.164    734.30141    9.0217638    9.0217638    9.0217638    47.029011 
  827200    301.30571   -11497.321            0   -10600.084    17464.387    732.50915    9.0144178    9.0144178    9.0144178    38.094576 
  827300    305.45733   -11502.091            0   -10592.491    22572.446     731.6368     9.010838     9.010838     9.010838    41.589152 
  827400    306.79993   -11496.812            0   -10583.214    17195.281    732.08253    9.0126675    9.0126675    9.0126675    40.548934 
  827500    299.10449       -11463            0   -10572.318    606.33994    733.72451    9.0194006    9.0194006    9.0194006    38.242775 
  827600    306.93664   -11477.908            0   -10563.903    12096.275     736.2081    9.0295657    9.0295657    9.0295657    37.383556 
  827700    309.62776   -11477.156            0   -10555.138   -12423.856    738.88326    9.0404894    9.0404894    9.0404894    47.291287 
  827800    305.89824   -11459.494            0   -10548.582   -22599.219    741.17607    9.0498309    9.0498309    9.0498309    42.551805 
  827900    295.77797   -11423.913            0   -10543.137    -20538.42     742.3074    9.0544331    9.0544331    9.0544331    44.421891 
  828000    315.14772    -11480.63            0   -10542.174   -22587.012    741.65904    9.0517962    9.0517962    9.0517962    35.284302 
  828100    309.53022   -11462.582            0   -10540.854   -21852.149    739.61829    9.0434862    9.0434862    9.0434862    49.415585 
  828200    310.98189   -11468.556            0   -10542.505   -6385.0204    736.66861    9.0314481    9.0314481    9.0314481    45.203928 
  828300    299.59078   -11437.252            0   -10545.122    7558.1135    733.66624    9.0191618    9.0191618    9.0191618    31.920656 
  828400    304.49095    -11457.61            0   -10550.888    30040.424    731.38139    9.0097893    9.0097893    9.0097893    42.989194 
  828500    312.75312   -11491.473            0   -10560.148    29377.905    730.54536     9.006355     9.006355     9.006355    39.146074 
  828600    303.83381   -11476.952            0   -10572.187     16441.53    731.44559    9.0100529    9.0100529    9.0100529    48.206391 
  828700    311.25558   -11514.621            0   -10587.755    12399.123    733.80184    9.0197174    9.0197174    9.0197174    43.960613 
  828800    303.70327   -11504.819            0   -10600.443   -921.00498    737.12318    9.0333053    9.0333053    9.0333053    37.219091 
  828900    299.32177    -11501.05            0   -10609.721   -17789.208    740.24773    9.0460509    9.0460509    9.0460509    46.288231 
  829000    291.59982   -11484.052            0   -10615.718    -26130.31    742.09079    9.0535523    9.0535523    9.0535523    48.579731 
  829100    299.67592   -11514.184            0     -10621.8   -24918.641     742.3609    9.0546506    9.0546506    9.0546506    46.256467 
  829200    291.45265   -11490.915            0   -10623.019   -29199.564     741.0427     9.049288     9.049288     9.049288    46.884329 
  829300    294.96725    -11503.28            0   -10624.918   -8697.6239    738.24041    9.0378668    9.0378668    9.0378668    46.667452 
  829400    289.46277   -11487.193            0   -10625.223    5213.0348    734.65714    9.0232204    9.0232204    9.0232204     38.07328 
  829500     299.4301   -11517.102            0   -10625.451    21576.217    731.40378    9.0098812    9.0098812    9.0098812    36.187933 
  829600    286.71754   -11475.885            0   -10622.089    26950.682    729.41004    9.0016871    9.0016871    9.0016871    45.025939 
  829700    304.51335   -11530.175            0   -10623.386    22370.049    729.12994    9.0005347    9.0005347    9.0005347    43.016786 
  829800    299.71334   -11515.811            0   -10623.316    29428.881    730.48637    9.0061126    9.0061126    9.0061126    40.891488 
  829900    312.81396   -11555.742            0   -10624.235    4253.9284    733.31456    9.0177205    9.0177205    9.0177205    45.676469 
  830000    290.33691   -11485.334            0   -10620.761   -6887.0796    736.77128    9.0318676    9.0318676    9.0318676    42.261794 
  830100    301.25274    -11516.87            0   -10619.791   -16883.652    739.85362    9.0444453    9.0444453    9.0444453    50.248285 
  830200    280.42399   -11451.011            0   -10615.956   -18165.787    741.82924    9.0524885    9.0524885    9.0524885    51.523848 
  830300    297.97433   -11501.037            0    -10613.72   -24487.747    742.12534    9.0536928    9.0536928    9.0536928    38.221281 
  830400     306.4375   -11519.914            0   -10607.395    -20917.66    740.63015    9.0476084    9.0476084    9.0476084    46.707457 
  830500    302.25267   -11498.104            0   -10598.047   -4988.9053     737.8812    9.0364007    9.0364007    9.0364007    38.500029 
  830600    301.28181   -11483.407            0   -10586.241    4444.0293    734.80732    9.0238352    9.0238352    9.0238352    45.310355 
  830700    300.58492   -11466.076            0   -10570.985    17602.886    732.19262    9.0131192    9.0131192    9.0131192    51.674464 
  830800    311.87369    -11486.56            0   -10557.853    26193.462    730.86387    9.0076637    9.0076637    9.0076637     34.85626 
  830900    313.14287   -11480.792            0   -10548.306    36271.527    731.07984    9.0085509    9.0085509    9.0085509      38.2981 
  831000    318.74454   -11491.705            0   -10542.538    14900.266    732.95744    9.0162564    9.0162564    9.0162564    48.958415 
  831100    311.72991   -11467.731            0   -10539.453    11045.756    735.78989    9.0278556    9.0278556    9.0278556    44.450118 
  831200    300.37702   -11431.485            0   -10537.013   -9458.5544     738.7616    9.0399932    9.0399932    9.0399932    45.415396 
  831300    302.72748   -11439.313            0   -10537.842    -15886.52    741.05871    9.0493532    9.0493532    9.0493532     44.73142 
  831400    306.17698   -11451.625            0   -10539.883   -18317.382    742.21961    9.0540761    9.0540761    9.0540761    41.124031 
  831500    306.11444   -11457.434            0   -10545.878   -30835.526    741.82808    9.0524838    9.0524838    9.0524838    41.755093 
  831600    296.59793   -11435.965            0   -10552.747   -18683.953    739.96164    9.0448854    9.0448854    9.0448854    46.138263 
  831700    300.92334   -11456.669            0   -10560.571     10684.61    737.09947    9.0332085    9.0332085    9.0332085       34.745 
  831800    296.76317   -11453.127            0   -10569.417    3590.1694    734.23835    9.0215056    9.0215056    9.0215056    52.265505 
  831900    319.75881   -11532.419            0   -10580.232    18304.272      731.981    9.0122508    9.0122508    9.0122508    46.100447 
  832000    300.61768   -11484.101            0   -10588.913     24089.65     730.8867    9.0077575    9.0077575    9.0077575    42.556125 
  832100    299.78673   -11488.452            0   -10595.738    22636.898     731.3375    9.0096091    9.0096091    9.0096091    49.114056 
  832200    303.06794   -11504.191            0   -10601.707    9608.0107    733.06014    9.0166775    9.0166775    9.0166775    36.258764 
  832300    290.91786   -11470.581            0   -10604.277    1233.2697    735.59452    9.0270565    9.0270565    9.0270565    32.336974 
  832400    294.98423   -11484.066            0   -10605.653   -7399.3736    738.23304    9.0378368    9.0378368    9.0378368     34.76881 
  832500    298.23567   -11493.636            0   -10605.541   -25127.131    740.16193    9.0457014    9.0457014    9.0457014    45.918479 
  832600    296.66103   -11487.398            0   -10603.992   -25889.136    740.79538    9.0482812    9.0482812    9.0482812    36.100919 
  832700    288.71481   -11462.831            0   -10603.088   -9450.0276    740.00009    9.0450421    9.0450421    9.0450421    43.178043 
  832800    290.25455   -11465.846            0   -10601.518    -8160.046     738.2814    9.0380341    9.0380341    9.0380341    42.117443 
  832900    300.71955   -11496.435            0   -10600.944    1111.8578     736.0995    9.0291217    9.0291217    9.0291217    39.208822 
  833000    317.73453   -11545.439            0    -10599.28     5114.804     734.0711    9.0208205    9.0208205    9.0208205     45.58906 
  833100    304.05668   -11499.939            0    -10594.51    13909.423    732.75096    9.0154096    9.0154096    9.0154096    39.621709 
  833200    304.70364   -11499.022            0   -10591.667    17449.136    732.54361    9.0145592    9.0145592    9.0145592    42.347735 
  833300    304.88033    -11497.19            0   -10589.308    13039.084     733.2611    9.0175013    9.0175013    9.0175013    48.297299 
  833400     306.0096   -11498.758            0   -10587.513    4679.5498    734.77334    9.0236962    9.0236962    9.0236962    44.882931 
  833500    296.95451   -11469.377            0   -10585.097   -1358.8683    736.61075    9.0312116    9.0312116    9.0312116    32.736656 
  833600    296.38455   -11465.479            0   -10582.897    -12761.08    738.40608    9.0385429    9.0385429    9.0385429    40.555276 
  833700    299.78416   -11473.585            0   -10580.879   -14248.619      739.501    9.0430081    9.0430081    9.0430081     44.88347 
  833800    303.35396   -11482.389            0   -10579.053   -24774.617    739.76544    9.0440859    9.0440859    9.0440859    35.969591 
  833900    310.62424   -11501.911            0   -10576.925   -5363.7184    739.17583    9.0416825    9.0416825    9.0416825    43.642737 
  834000    302.34079   -11475.844            0   -10575.525   -2164.8994     738.0311    9.0370126    9.0370126    9.0370126    42.506109 
  834100    297.30778   -11459.378            0   -10574.046   -3472.7114    736.67321    9.0314669    9.0314669    9.0314669    39.479412 
  834200    300.11751   -11466.018            0    -10572.32    8220.2807    735.34122    9.0260203    9.0260203    9.0260203    47.803439 
  834300    299.75476   -11462.558            0    -10569.94    7621.9013    734.33783     9.021913     9.021913     9.021913    42.834176 
  834400    305.15496   -11480.435            0   -10571.736    24517.893    734.03005    9.0206524    9.0206524    9.0206524     38.00536 
  834500    310.23126   -11496.505            0   -10572.689    4244.4069    734.74782    9.0235917    9.0235917    9.0235917    42.118041 
  834600    298.34845   -11461.326            0   -10572.895    1446.8263    735.91881    9.0283829    9.0283829    9.0283829    46.089744 
  834700    302.35218   -11476.572            0   -10576.219   -2263.1387    737.10477    9.0332301    9.0332301    9.0332301    37.261235 
  834800     302.9301   -11483.207            0   -10581.133   -6428.2694    738.14097     9.037461     9.037461     9.037461     49.57737 
  834900    306.60573   -11500.673            0   -10587.654   -9557.1436    738.58522    9.0392737    9.0392737    9.0392737    40.684037 
  835000      290.441     -11458.3            0   -10593.416    -4608.663    738.28927    9.0380662    9.0380662    9.0380662    40.785176 
  835100    288.24214   -11460.755            0   -10602.419   -15888.306    737.58568    9.0351942    9.0351942    9.0351942    44.748079 
  835200    299.20644   -11502.401            0   -10611.415   -641.32006    736.52959    9.0308799    9.0308799    9.0308799    36.962623 
  835300    305.15402    -11529.72            0   -10621.023    4608.5062     735.4719    9.0265549    9.0265549    9.0265549    46.690981 
  835400    292.14634   -11498.229            0   -10628.267    7093.4479    734.77461    9.0237013    9.0237013    9.0237013    42.197773 
  835500    301.30026   -11532.892            0   -10635.672     6375.785    734.60328    9.0229999    9.0229999    9.0229999    39.646795 
  835600    305.96558   -11553.643            0    -10642.53    8172.7275    734.86141    9.0240567    9.0240567    9.0240567    38.939612 
  835700    293.18979   -11520.037            0   -10646.968     9067.424    735.49783     9.026661     9.026661     9.026661    44.569201 
  835800    289.84645   -11512.449            0   -10649.336   -10216.825    736.26781    9.0298098    9.0298098    9.0298098    38.692284 
  835900    291.28572   -11520.356            0   -10652.957   -4058.7621    736.87674    9.0322985    9.0322985    9.0322985    35.574217 
  836000    299.48242   -11545.683            0   -10653.875   -13453.059    737.18104    9.0335417    9.0335417    9.0335417    44.757511 
  836100    282.04856   -11489.585            0   -10649.693    4413.6217    736.83426    9.0321249    9.0321249    9.0321249    45.272618 
  836200    297.69173   -11536.088            0   -10649.613   -9752.6364    736.06992    9.0290008    9.0290008    9.0290008    40.147807 
  836300    306.87348   -11559.454            0   -10645.637    2925.3099    735.06933    9.0249077    9.0249077    9.0249077    43.892972 
  836400    302.44057   -11537.618            0   -10637.002   -11251.364    734.26504    9.0216149    9.0216149    9.0216149    35.788282 
  836500    292.50431   -11495.774            0   -10624.746    15822.148    733.83612    9.0198579    9.0198579    9.0198579     44.68922 
  836600    295.73874   -11490.461            0   -10609.801    5455.4282    733.96205    9.0203738    9.0203738    9.0203738    44.868267 
  836700    307.28577   -11508.233            0   -10593.189     4270.885    734.67087    9.0232766    9.0232766    9.0232766    37.256928 
  836800    302.62275   -11479.058            0     -10577.9    4777.2691    735.80573    9.0279204    9.0279204    9.0279204    43.288736 
  836900    306.93733   -11482.125            0   -10568.118   -711.60365    737.18222    9.0335465    9.0335465    9.0335465    44.620816 
  837000    319.65979   -11514.462            0    -10562.57   -10490.246    738.56858    9.0392058    9.0392058    9.0392058    43.094529 
Loop time of 2418.58 on 16 procs for 100000 steps with 1000 atoms

Performance: 3.572 ns/day, 6.718 hours/ns, 41.347 timesteps/s
94.6% CPU use with 16 MPI tasks x no OpenMP threads

MPI task timing breakdown:
Section |  min time  |  avg time  |  max time  |%varavg| %total
---------------------------------------------------------------
Pair    | 180.42     | 192.45     | 275.22     | 156.6 |  7.96
Neigh   | 64.796     | 68.905     | 93.916     |  80.5 |  2.85
Comm    | 36.482     | 144.21     | 159.75     | 236.1 |  5.96
Output  | 1359.7     | 1400.6     | 2009.2     | 419.9 | 57.91
Modify  | 2.8228     | 611.65     | 652.65     | 635.6 | 25.29
Other   |            | 0.7565     |            |       |  0.03

Nlocal:    62.5 ave 66 max 59 min
Histogram: 2 1 2 0 2 3 0 4 1 1
Nghost:    1931.94 ave 1961 max 1907 min
Histogram: 4 1 1 0 1 2 3 2 1 1
Neighs:    0 ave 0 max 0 min
Histogram: 16 0 0 0 0 0 0 0 0 0
FullNghs:  19924.8 ave 21203 max 18663 min
Histogram: 2 1 1 1 2 4 0 3 1 1

Total # of neighbors = 318796
Ave neighs/atom = 318.796
Neighbor list builds = 100000
Dangerous builds not checked
Total wall time: 5:52:18
