LAMMPS (16 Mar 2018)
Reading data file ...
  orthogonal box = (-4.73134 -4.73134 -4.73134) to (4.73134 4.73134 4.73134)
  2 by 2 by 4 MPI processor grid
  reading atoms ...
  1000 atoms
Reading potential file /home/fs01/ajm529/lammps-16Mar18/potentials/sw_potentials/AG/eps2.23.sw with DATE: 2008-01-29
Neighbor list info ...
  update every 1 steps, delay 0 steps, check no
  max neighbors/atom: 2000, page size: 100000
  master list distance cutoff = 3.836
  ghost atom cutoff = 3.836
  binsize = 1.918, bins = 5 5 5
  1 neighbor lists, perpetual/occasional/extra = 1 0 0
  (1) pair sw, perpetual
      attributes: full, newton on
      pair build: full/bin/atomonly
      stencil: full/bin/3d
      bin: standard
Setting up Verlet run ...
  Unit style    : real
  Current step  : 0
  Time step     : 1
Per MPI rank memory allocation (min/avg/max) = 3.517 | 3.519 | 3.52 Mbytes
Step Temp E_pair E_mol TotEng Press Volume Lx Ly Lz S/CPU 
       0          300    -10122.06            0   -9228.7114   -42295.741    847.30814    9.4626721    9.4626721    9.4626721            0 
     100    321.84667   -10190.529            0   -9232.1249   -50987.444    844.97001    9.4539601    9.4539601    9.4539601     47.24738 
     200    331.21299   -10230.839            0   -9244.5431   -43264.297    838.55548    9.4299763    9.4299763    9.4299763    38.752192 
     300    335.20784   -10261.252            0   -9263.0606   -34955.483    828.82904    9.3933748    9.3933748    9.3933748    49.871043 
     400    328.37832   -10262.671            0   -9284.8168   -12312.629    817.23975    9.3493875    9.3493875    9.3493875    57.750972 
     500    318.61332   -10253.718            0   -9304.9421   -6193.4613    805.99016      9.30629      9.30629      9.30629    44.673636 
     600    320.63912   -10278.502            0   -9323.6938    5627.1671    796.20375    9.2684705    9.2684705    9.2684705    41.794811 
     700    330.28644   -10321.947            0   -9338.4107   -5093.1629    788.66337    9.2391189    9.2391189    9.2391189    47.936343 
     800    326.39868   -10323.979            0    -9352.019    32121.456    783.30755    9.2181571    9.2181571    9.2181571    47.182662 
     900    341.20267   -10386.837            0   -9370.7941    18461.799    779.96483    9.2050257    9.2050257    9.2050257    44.373885 
    1000    322.03735    -10348.74            0   -9389.7676    22934.744    778.61328    9.1997057    9.1997057    9.1997057    46.031211 
Loop time of 21.6964 on 16 procs for 1000 steps with 1000 atoms

Performance: 3.982 ns/day, 6.027 hours/ns, 46.091 timesteps/s
94.6% CPU use with 16 MPI tasks x no OpenMP threads

MPI task timing breakdown:
Section |  min time  |  avg time  |  max time  |%varavg| %total
---------------------------------------------------------------
Pair    | 2.1364     | 2.3095     | 2.4305     |   4.7 | 10.64
Neigh   | 0.75478    | 0.80037    | 0.8386     |   2.2 |  3.69
Comm    | 0.83118    | 0.97675    | 1.1958     |   9.1 |  4.50
Output  | 11.763     | 12.128     | 17.538     |  40.1 | 55.90
Modify  | 0.063012   | 5.4735     | 5.8391     |  59.7 | 25.23
Other   |            | 0.008246   |            |       |  0.04

Nlocal:    62.5 ave 66 max 57 min
Histogram: 2 0 1 0 1 3 3 1 3 2
Nghost:    1867.25 ave 1903 max 1843 min
Histogram: 2 2 3 1 2 2 2 0 1 1
Neighs:    0 ave 0 max 0 min
Histogram: 16 0 0 0 0 0 0 0 0 0
FullNghs:  18978.6 ave 20103 max 17045 min
Histogram: 2 0 0 1 1 2 3 2 2 3

Total # of neighbors = 303658
Ave neighs/atom = 303.658
Neighbor list builds = 1000
Dangerous builds not checked
Setting up Verlet run ...
  Unit style    : real
  Current step  : 1000
  Time step     : 1
Per MPI rank memory allocation (min/avg/max) = 3.768 | 4.376 | 4.579 Mbytes
Step Temp E_pair E_mol TotEng Press Volume Lx Ly Lz S/CPU 
    1000    322.03735    -10348.74            0   -9389.7676    22934.744    778.61328    9.1997057    9.1997057    9.1997057            0 
    1100    314.64176   -10346.826            0   -9409.8761    15202.248    779.16662    9.2018845    9.2018845    9.2018845    39.070117 
    1200    314.75078   -10368.269            0   -9430.9951    21531.304    780.67004    9.2077992    9.2077992    9.2077992      39.4511 
    1300    305.56972   -10359.664            0   -9449.7293    16700.877    782.97826    9.2168652    9.2168652    9.2168652     42.60746 
    1400    308.21646   -10387.659            0   -9469.8427   -15512.299    786.05635    9.2289273    9.2289273    9.2289273    36.087059 
    1500    314.74971   -10425.487            0   -9488.2158    11598.934    788.65499    9.2390862    9.2390862    9.2390862    43.232123 
    1600     304.3957   -10409.461            0   -9503.0226    7090.4381    790.83836    9.2476044    9.2476044    9.2476044    45.593302 
    1700    304.99489   -10425.604            0   -9517.3811   -9186.1985    792.76236    9.2550977    9.2550977    9.2550977    40.364762 
    1800    295.77016   -10411.041            0   -9530.2883   -20131.028     793.9581    9.2597486    9.2597486    9.2597486    42.958915 
    1900    302.96671    -10444.33            0   -9542.1471   -11424.737    793.93704    9.2596667    9.2596667    9.2596667    43.850874 
    2000    294.28526   -10430.025            0   -9553.6934   -10093.927    792.82439    9.2553391    9.2553391    9.2553391    53.266915 
Loop time of 23.6818 on 16 procs for 1000 steps with 1000 atoms

Performance: 3.648 ns/day, 6.578 hours/ns, 42.227 timesteps/s
94.6% CPU use with 16 MPI tasks x no OpenMP threads

MPI task timing breakdown:
Section |  min time  |  avg time  |  max time  |%varavg| %total
---------------------------------------------------------------
Pair    | 2.3584     | 2.5004     | 2.7051     |   5.2 | 10.56
Neigh   | 0.79318    | 0.82427    | 0.87242    |   2.1 |  3.48
Comm    | 0.73156    | 0.9841     | 1.1568     |  10.0 |  4.16
Output  | 13.193     | 13.577     | 19.29      |  40.0 | 57.33
Modify  | 0.07413    | 5.7874     | 6.1718     |  61.3 | 24.44
Other   |            | 0.008407   |            |       |  0.04

Nlocal:    62.5 ave 67 max 58 min
Histogram: 2 1 2 2 0 3 1 2 1 2
Nghost:    1843.81 ave 1853 max 1832 min
Histogram: 2 0 2 1 0 1 5 2 1 2
Neighs:    0 ave 0 max 0 min
Histogram: 16 0 0 0 0 0 0 0 0 0
FullNghs:  18612.6 ave 20072 max 17260 min
Histogram: 2 2 2 1 0 3 1 2 1 2

Total # of neighbors = 297802
Ave neighs/atom = 297.802
Neighbor list builds = 1000
Dangerous builds not checked
Setting up Verlet run ...
  Unit style    : real
  Current step  : 2000
  Time step     : 1
Per MPI rank memory allocation (min/avg/max) = 4.577 | 4.578 | 4.579 Mbytes
Step Temp E_pair E_mol TotEng Press Volume Lx Ly Lz S/CPU 
    2000    294.28526   -10430.025            0   -9553.6934   -10093.927    792.82439    9.2553391    9.2553391    9.2553391            0 
    2100    304.12824   -10469.781            0   -9564.1387   -4637.9839     791.3543     9.249615     9.249615     9.249615    48.604172 
    2200    300.01899    -10467.43            0   -9574.0243   -28314.148    789.80089    9.2435588    9.2435588    9.2435588    44.935823 
    2300    299.96366   -10477.053            0   -9583.8122   -7807.8153    787.84964    9.2359402    9.2359402    9.2359402    37.652618 
    2400    297.53579   -10476.638            0    -9590.627    596.86154    785.73682    9.2276767    9.2276767    9.2276767    53.410229 
    2500    303.70039   -10504.207            0   -9599.8389   -3786.1982    783.74682    9.2198799    9.2198799    9.2198799    46.518013 
    2600    306.24916   -10520.745            0   -9608.7876    15953.388    782.12202    9.2135042    9.2135042    9.2135042    43.627253 
    2700     293.9749   -10491.655            0   -9616.2478   -4804.3947    781.71055    9.2118882    9.2118882    9.2118882    48.042031 
    2800      298.215   -10513.049            0   -9625.0153    7561.3538     782.0742    9.2133164    9.2133164    9.2133164    46.489699 
    2900    299.73769   -10525.408            0   -9632.8399    7092.1917    783.27084    9.2180131    9.2180131    9.2180131    35.052451 
    3000    290.93948     -10505.8            0   -9639.4324    80.758253    784.87274    9.2242929    9.2242929    9.2242929    46.731211 
Loop time of 22.4781 on 16 procs for 1000 steps with 1000 atoms

Performance: 3.844 ns/day, 6.244 hours/ns, 44.488 timesteps/s
94.6% CPU use with 16 MPI tasks x no OpenMP threads

MPI task timing breakdown:
Section |  min time  |  avg time  |  max time  |%varavg| %total
---------------------------------------------------------------
Pair    | 2.3684     | 2.4783     | 2.6126     |   4.9 | 11.03
Neigh   | 0.79033    | 0.82323    | 0.86356    |   2.8 |  3.66
Comm    | 0.80432    | 0.97339    | 1.1164     |  10.3 |  4.33
Output  | 11.884     | 12.276     | 18.105     |  43.0 | 54.61
Modify  | 0.090663   | 5.9192     | 6.311      |  61.9 | 26.33
Other   |            | 0.008395   |            |       |  0.04

Nlocal:    62.5 ave 68 max 56 min
Histogram: 1 1 0 2 1 5 1 2 2 1
Nghost:    1846.75 ave 1862 max 1830 min
Histogram: 1 0 3 2 2 2 1 2 2 1
Neighs:    0 ave 0 max 0 min
Histogram: 16 0 0 0 0 0 0 0 0 0
FullNghs:  18819.1 ave 20437 max 16725 min
Histogram: 1 0 1 2 2 4 0 3 2 1

Total # of neighbors = 301106
Ave neighs/atom = 301.106
Neighbor list builds = 1000
Dangerous builds not checked
Setting up Verlet run ...
  Unit style    : real
  Current step  : 3000
  Time step     : 1
Per MPI rank memory allocation (min/avg/max) = 4.577 | 4.578 | 4.579 Mbytes
Step Temp E_pair E_mol TotEng Press Volume Lx Ly Lz S/CPU 
    3000    290.93948     -10505.8            0   -9639.4324    80.758253    784.87274    9.2242929    9.2242929    9.2242929            0 
    3100    293.17544    -10516.65            0    -9643.624   -10706.449     786.5787    9.2309712    9.2309712    9.2309712    47.350168 
    3200    302.68865   -10547.043            0   -9645.6877   -19213.568    787.61825     9.235036     9.235036     9.235036    46.199745 
    3300    295.99245   -10526.383            0   -9644.9681   -19278.518    787.56056    9.2348105    9.2348105    9.2348105    52.635332 
    3400    294.31965   -10520.155            0   -9643.7211   -9701.8708    786.65428    9.2312668    9.2312668    9.2312668    54.538808 
    3500    291.65159   -10509.236            0   -9640.7472   -491.16369    785.14207    9.2253478    9.2253478    9.2253478    46.624671 
    3600    293.08005    -10509.49            0   -9636.7481   -2678.9723    783.09729    9.2173322    9.2173322    9.2173322    43.993696 
    3700    289.93645   -10495.754            0   -9632.3726      9768.61    780.91452    9.2087602    9.2087602    9.2087602    54.498599 
    3800    303.88298    -10532.66            0   -9627.7485    16373.127    779.53141    9.2033204    9.2033204    9.2033204     38.91148 
    3900    303.50298   -10524.876            0   -9621.0961    16834.558    779.40809     9.202835     9.202835     9.202835     52.38056 
    4000     297.1046   -10499.828            0   -9615.1017    6554.9596    779.99222    9.2051335    9.2051335    9.2051335    41.578352 
Loop time of 21.1468 on 16 procs for 1000 steps with 1000 atoms

Performance: 4.086 ns/day, 5.874 hours/ns, 47.289 timesteps/s
94.7% CPU use with 16 MPI tasks x no OpenMP threads

MPI task timing breakdown:
Section |  min time  |  avg time  |  max time  |%varavg| %total
---------------------------------------------------------------
Pair    | 2.3196     | 2.4514     | 2.6381     |   4.7 | 11.59
Neigh   | 0.77773    | 0.81645    | 0.85282    |   2.2 |  3.86
Comm    | 0.81804    | 1.0428     | 1.2117     |   8.9 |  4.93
Output  | 11.325     | 11.67      | 16.778     |  38.6 | 55.18
Modify  | 0.045193   | 5.158      | 5.5039     |  58.1 | 24.39
Other   |            | 0.008313   |            |       |  0.04

Nlocal:    62.5 ave 67 max 56 min
Histogram: 1 0 1 4 0 1 4 1 0 4
Nghost:    1861.81 ave 1892 max 1830 min
Histogram: 2 0 1 1 3 3 2 2 1 1
Neighs:    0 ave 0 max 0 min
Histogram: 16 0 0 0 0 0 0 0 0 0
FullNghs:  18903.5 ave 20286 max 16724 min
Histogram: 1 0 1 2 2 1 3 2 0 4

Total # of neighbors = 302456
Ave neighs/atom = 302.456
Neighbor list builds = 1000
Dangerous builds not checked
Setting up Verlet run ...
  Unit style    : real
  Current step  : 4000
  Time step     : 1
Per MPI rank memory allocation (min/avg/max) = 4.577 | 4.578 | 4.579 Mbytes
Step Temp E_pair E_mol TotEng Press Volume Lx Ly Lz S/CPU 
    4000     297.1046   -10499.828            0   -9615.1017    6554.9596    779.99222    9.2051335    9.2051335    9.2051335            0 
    4100    300.56441   -10505.844            0   -9610.8141    18409.043    781.32067    9.2103564    9.2103564    9.2103564    35.054601 
    4200    307.81362   -10522.375            0   -9605.7585      3000.71    783.31809    9.2181984    9.2181984    9.2181984     44.68927 
    4300    296.26924   -10483.254            0   -9601.0152    5998.7538    785.54267    9.2269166    9.2269166    9.2269166    47.540422 
    4400    303.11431   -10501.037            0   -9598.4139    11995.266    787.92033    9.2362164    9.2362164    9.2362164    33.709097 
    4500    303.09016   -10498.197            0   -9595.6462    3581.5102    790.24836    9.2453041    9.2453041    9.2453041    41.225092 
    4600    303.96219   -10498.654            0   -9593.5066    6981.3442     792.3196    9.2533744    9.2533744    9.2533744    41.472887 
    4700    307.15315   -10505.901            0   -9591.2518    1028.4975    794.58559    9.2621874    9.2621874    9.2621874    32.349951 
    4800    297.96028   -10474.162            0   -9586.8874    3628.1346    796.43825    9.2693803    9.2693803    9.2693803    47.032674 
    4900    290.17594   -10446.956            0   -9582.8621   -6493.8843    797.93811    9.2751954    9.2751954    9.2751954    42.979265 
    5000    300.16263   -10470.988            0   -9577.1548   -24061.597    798.71616    9.2782091    9.2782091    9.2782091    39.619339 
Loop time of 25.0654 on 16 procs for 1000 steps with 1000 atoms

Performance: 3.447 ns/day, 6.963 hours/ns, 39.896 timesteps/s
94.5% CPU use with 16 MPI tasks x no OpenMP threads

MPI task timing breakdown:
Section |  min time  |  avg time  |  max time  |%varavg| %total
---------------------------------------------------------------
Pair    | 2.3582     | 2.459      | 2.6483     |   5.2 |  9.81
Neigh   | 0.79635    | 0.82419    | 0.88016    |   2.5 |  3.29
Comm    | 0.721      | 0.96618    | 1.0865     |  10.4 |  3.85
Output  | 13.77      | 14.209     | 20.728     |  44.7 | 56.69
Modify  | 0.079316   | 6.5992     | 7.0373     |  65.5 | 26.33
Other   |            | 0.008352   |            |       |  0.03

Nlocal:    62.5 ave 67 max 56 min
Histogram: 2 0 1 0 2 2 2 2 2 3
Nghost:    1832.81 ave 1854 max 1812 min
Histogram: 3 1 0 3 0 2 2 2 1 2
Neighs:    0 ave 0 max 0 min
Histogram: 16 0 0 0 0 0 0 0 0 0
FullNghs:  18457.6 ave 19770 max 16326 min
Histogram: 2 0 1 0 0 3 3 3 1 3

Total # of neighbors = 295322
Ave neighs/atom = 295.322
Neighbor list builds = 1000
Dangerous builds not checked
Setting up Verlet run ...
  Unit style    : real
  Current step  : 5000
  Time step     : 1
Per MPI rank memory allocation (min/avg/max) = 4.577 | 4.578 | 4.579 Mbytes
Step Temp E_pair E_mol TotEng Press Volume Lx Ly Lz S/CPU 
    5000    300.16263   -10470.988            0   -9577.1548   -24061.597    798.71616    9.2782091    9.2782091    9.2782091            0 
    5100    294.51071   -10446.679            0   -9569.6765   -25648.371    797.96453    9.2752978    9.2752978    9.2752978    45.472547 
    5200    294.43259   -10437.632            0   -9560.8623   -16725.125    795.59083    9.2660916    9.2660916    9.2660916    53.045338 
    5300     299.4914   -10443.016            0   -9551.1818   -5410.5768    792.15661    9.2527398    9.2527398    9.2527398    44.886202 
    5400    302.32152   -10440.969            0   -9540.7068   -3000.8404    788.42303    9.2381803    9.2381803    9.2381803    46.161109 
    5500    310.11888   -10455.215            0   -9531.7343    15584.936     784.9291    9.2245136    9.2245136    9.2245136    36.684888 
    5600    325.40744   -10494.563            0   -9525.5555    9754.5721    782.25737    9.2140356    9.2140356    9.2140356    49.174108 
    5700    319.25017   -10472.558            0   -9521.8856    23759.526    780.48576    9.2070746    9.2070746    9.2070746    43.837733 
    5800    322.01202   -10481.207            0   -9522.3097    30294.712    780.22265    9.2060399    9.2060399    9.2060399     40.77283 
    5900    313.14766    -10458.09            0   -9525.5893    3911.8274    781.52748     9.211169     9.211169     9.211169    48.577813 
    6000    308.90268   -10453.425            0   -9533.5658    13606.208    783.54393    9.2190843    9.2190843    9.2190843    54.002719 
Loop time of 21.8821 on 16 procs for 1000 steps with 1000 atoms

Performance: 3.948 ns/day, 6.078 hours/ns, 45.699 timesteps/s
94.7% CPU use with 16 MPI tasks x no OpenMP threads

MPI task timing breakdown:
Section |  min time  |  avg time  |  max time  |%varavg| %total
---------------------------------------------------------------
Pair    | 2.4471     | 2.5412     | 2.6965     |   4.5 | 11.61
Neigh   | 0.81392    | 0.8389     | 0.88622    |   2.1 |  3.83
Comm    | 0.69797    | 0.91121    | 1.0316     |   9.6 |  4.16
Output  | 11.77      | 12.131     | 17.491     |  39.7 | 55.44
Modify  | 0.10154    | 5.4515     | 5.8114     |  59.2 | 24.91
Other   |            | 0.008463   |            |       |  0.04

Nlocal:    62.5 ave 65 max 59 min
Histogram: 1 2 0 1 0 5 1 0 3 3
Nghost:    1866.62 ave 1878 max 1855 min
Histogram: 2 2 1 2 1 0 4 0 2 2
Neighs:    0 ave 0 max 0 min
Histogram: 16 0 0 0 0 0 0 0 0 0
FullNghs:  18852.5 ave 19892 max 17806 min
Histogram: 2 1 1 0 5 1 3 0 2 1

Total # of neighbors = 301640
Ave neighs/atom = 301.64
Neighbor list builds = 1000
Dangerous builds not checked
Setting up Verlet run ...
  Unit style    : real
  Current step  : 6000
  Time step     : 1
Per MPI rank memory allocation (min/avg/max) = 4.577 | 4.578 | 4.579 Mbytes
Step Temp E_pair E_mol TotEng Press Volume Lx Ly Lz S/CPU 
    6000    308.90268   -10453.425            0   -9533.5658    13606.208    783.54393    9.2190843    9.2190843    9.2190843            0 
    6100    308.37004   -10462.633            0   -9544.3592    3032.7346    786.20794    9.2295205    9.2295205    9.2295205     36.35471 
    6200    306.97935   -10471.426            0   -9557.2935   -9046.3961     788.9009    9.2400464    9.2400464    9.2400464    30.134779 
    6300    291.95675   -10439.685            0   -9570.2873   -19867.724     790.7901    9.2474163    9.2474163    9.2474163    38.624597 
    6400    306.42993    -10495.34            0   -9582.8442   -25970.786    791.42169    9.2498775    9.2498775    9.2498775    58.116827 
    6500    305.05284   -10499.543            0   -9591.1479    2617.7309    790.66718    9.2469371    9.2469371    9.2469371    48.577178 
    6600    294.06337   -10472.783            0   -9597.1122   -16720.465    789.29672    9.2415914    9.2415914    9.2415914    47.062306 
    6700    284.52033   -10446.641            0   -9599.3877   -11264.795    787.10464    9.2330281    9.2330281    9.2330281     48.22479 
    6800      291.524   -10469.673            0   -9601.5648    9196.3825    784.29913    9.2220451    9.2220451    9.2220451    54.946211 
    6900    292.94071   -10474.805            0   -9602.4777    6948.3196    781.82482     9.212337     9.212337     9.212337    38.594724 
    7000     300.7705   -10497.558            0   -9601.9144    9247.2784    779.91067    9.2048126    9.2048126    9.2048126    51.934962 
Loop time of 22.9723 on 16 procs for 1000 steps with 1000 atoms

Performance: 3.761 ns/day, 6.381 hours/ns, 43.531 timesteps/s
94.6% CPU use with 16 MPI tasks x no OpenMP threads

MPI task timing breakdown:
Section |  min time  |  avg time  |  max time  |%varavg| %total
---------------------------------------------------------------
Pair    | 2.3418     | 2.4608     | 2.534      |   3.3 | 10.71
Neigh   | 0.80238    | 0.81893    | 0.84436    |   1.4 |  3.56
Comm    | 0.83859    | 0.93645    | 1.0577     |   6.2 |  4.08
Output  | 12.866     | 13.232     | 18.65      |  38.5 | 57.60
Modify  | 0.097035   | 5.5156     | 5.8815     |  59.6 | 24.01
Other   |            | 0.008306   |            |       |  0.04

Nlocal:    62.5 ave 67 max 56 min
Histogram: 1 0 0 2 3 2 2 3 0 3
Nghost:    1852.44 ave 1874 max 1829 min
Histogram: 1 0 4 0 0 5 4 0 0 2
Neighs:    0 ave 0 max 0 min
Histogram: 16 0 0 0 0 0 0 0 0 0
FullNghs:  18924.6 ave 20307 max 16953 min
Histogram: 1 0 0 1 4 2 3 2 1 2

Total # of neighbors = 302794
Ave neighs/atom = 302.794
Neighbor list builds = 1000
Dangerous builds not checked
Setting up Verlet run ...
  Unit style    : real
  Current step  : 7000
  Time step     : 1
Per MPI rank memory allocation (min/avg/max) = 4.577 | 4.578 | 4.579 Mbytes
Step Temp E_pair E_mol TotEng Press Volume Lx Ly Lz S/CPU 
    7000     300.7705   -10497.558            0   -9601.9144    9247.2784    779.91067    9.2048126    9.2048126    9.2048126            0 
    7100    298.86741   -10490.567            0   -9600.5908    18248.545    778.66921     9.199926     9.199926     9.199926    48.749458 
    7200    306.15969   -10513.285            0   -9601.5939     20119.16    778.41661    9.1989311    9.1989311    9.1989311     38.14851 
    7300    308.47553   -10519.432            0   -9600.8443    3552.7603    779.25174    9.2022196    9.2022196    9.2022196    50.308911 
    7400    301.90917   -10500.074            0   -9601.0403   -5594.6501    780.59218     9.207493     9.207493     9.207493      45.4855 
    7500    295.75957   -10480.193            0   -9599.4714   -1613.0091    782.10875    9.2134521    9.2134521    9.2134521    44.356984 
    7600    294.31209    -10475.32            0   -9598.9088    4605.0499    783.69796    9.2196883    9.2196883    9.2196883    44.306157 
    7700    300.55385   -10495.046            0   -9600.0483   -9026.6215    785.34063    9.2261254    9.2261254    9.2261254    50.671938 
    7800    300.34853   -10494.282            0   -9599.8957    1731.5075    786.45828    9.2305001    9.2305001    9.2305001    39.354704 
    7900    303.07165   -10500.884            0   -9598.3884     -12023.6    787.02649    9.2327225    9.2327225    9.2327225    53.955768 
    8000    299.18679   -10488.789            0   -9597.8617    17126.917    787.30578    9.2338145    9.2338145    9.2338145    42.991164 
Loop time of 22.0643 on 16 procs for 1000 steps with 1000 atoms

Performance: 3.916 ns/day, 6.129 hours/ns, 45.322 timesteps/s
94.6% CPU use with 16 MPI tasks x no OpenMP threads

MPI task timing breakdown:
Section |  min time  |  avg time  |  max time  |%varavg| %total
---------------------------------------------------------------
Pair    | 2.4054     | 2.5253     | 2.7673     |   5.4 | 11.45
Neigh   | 0.79477    | 0.8287     | 0.88037    |   2.3 |  3.76
Comm    | 0.67928    | 0.97511    | 1.127      |  10.6 |  4.42
Output  | 11.71      | 12.084     | 17.654     |  41.4 | 54.77
Modify  | 0.072013   | 5.6423     | 6.0171     |  60.5 | 25.57
Other   |            | 0.008589   |            |       |  0.04

Nlocal:    62.5 ave 69 max 56 min
Histogram: 3 0 1 2 2 1 2 2 2 1
Nghost:    1854.88 ave 1873 max 1841 min
Histogram: 5 2 0 1 1 1 2 0 1 3
Neighs:    0 ave 0 max 0 min
Histogram: 16 0 0 0 0 0 0 0 0 0
FullNghs:  18750.9 ave 20666 max 16697 min
Histogram: 3 0 2 1 2 1 1 1 3 2

Total # of neighbors = 300014
Ave neighs/atom = 300.014
Neighbor list builds = 1000
Dangerous builds not checked
Setting up Verlet run ...
  Unit style    : real
  Current step  : 8000
  Time step     : 1
Per MPI rank memory allocation (min/avg/max) = 4.577 | 4.578 | 4.579 Mbytes
Step Temp E_pair E_mol TotEng Press Volume Lx Ly Lz S/CPU 
    8000    299.18679   -10488.789            0   -9597.8617    17126.917    787.30578    9.2338145    9.2338145    9.2338145            0 
    8100    291.62517    -10465.16            0   -9596.7498     3050.927    787.98174    9.2364564    9.2364564    9.2364564    46.528855 
    8200    304.52322   -10501.956            0    -9595.138    -580.5072    788.59114    9.2388369    9.2388369    9.2388369     36.15504 
    8300     303.2672   -10494.276            0    -9591.198   -9121.3432    788.75484    9.2394761    9.2394761    9.2394761    39.171376 
    8400    310.06678   -10510.517            0   -9587.1908    754.25573    788.61666    9.2389365    9.2389365    9.2389365    47.559561 
    8500    297.16258   -10466.303            0   -9581.4031    15567.013     788.4333    9.2382204    9.2382204    9.2382204    35.321631 
    8600    302.61461   -10477.078            0   -9575.9436   -10361.443    788.46039    9.2383262    9.2383262    9.2383262    44.060755 
    8700    305.20247   -10477.177            0   -9568.3366    3141.3325    788.01285    9.2365779    9.2365779    9.2365779    41.107318 
    8800    309.63742   -10482.743            0   -9560.6959   -2845.1815    787.36535    9.2340474    9.2340474    9.2340474    51.471045 
    8900    308.82263   -10473.457            0   -9553.8358   -4865.1931    786.31217    9.2299284    9.2299284    9.2299284    33.307758 
    9000    298.87154   -10435.586            0   -9545.5977   -1302.6227    785.16627    9.2254426    9.2254426    9.2254426    47.873765 
Loop time of 24.1379 on 16 procs for 1000 steps with 1000 atoms

Performance: 3.579 ns/day, 6.705 hours/ns, 41.429 timesteps/s
94.5% CPU use with 16 MPI tasks x no OpenMP threads

MPI task timing breakdown:
Section |  min time  |  avg time  |  max time  |%varavg| %total
---------------------------------------------------------------
Pair    | 2.2387     | 2.4378     | 2.6247     |   7.7 | 10.10
Neigh   | 0.76044    | 0.81442    | 0.87126    |   4.0 |  3.37
Comm    | 0.79446    | 1.047      | 1.3004     |  15.1 |  4.34
Output  | 13.73      | 14.108     | 19.726     |  38.6 | 58.45
Modify  | 0.11287    | 5.7228     | 6.1058     |  60.5 | 23.71
Other   |            | 0.008308   |            |       |  0.03

Nlocal:    62.5 ave 70 max 56 min
Histogram: 1 0 3 2 2 5 1 1 0 1
Nghost:    1848.81 ave 1865 max 1833 min
Histogram: 2 0 1 1 5 1 3 1 1 1
Neighs:    0 ave 0 max 0 min
Histogram: 16 0 0 0 0 0 0 0 0 0
FullNghs:  18795.1 ave 21012 max 16807 min
Histogram: 1 0 3 2 3 3 2 1 0 1

Total # of neighbors = 300722
Ave neighs/atom = 300.722
Neighbor list builds = 1000
Dangerous builds not checked
Setting up Verlet run ...
  Unit style    : real
  Current step  : 9000
  Time step     : 1
Per MPI rank memory allocation (min/avg/max) = 4.577 | 4.578 | 4.579 Mbytes
Step Temp E_pair E_mol TotEng Press Volume Lx Ly Lz S/CPU 
    9000    298.87154   -10435.586            0   -9545.5977   -1302.6227    785.16627    9.2254426    9.2254426    9.2254426            0 
    9100    300.57582   -10435.215            0   -9540.1515    4888.5505    784.16181    9.2215069    9.2215069    9.2215069    36.412472 
    9200    333.53975   -10532.434            0   -9539.2096    11526.812    783.19859    9.2177296    9.2177296    9.2177296    49.803964 
    9300     314.2416   -10473.024            0   -9537.2663   -2309.8176    782.67937    9.2156922    9.2156922    9.2156922    34.632798 
    9400    309.54654   -10464.443            0   -9542.6658    254.07076    782.31401     9.214258     9.214258     9.214258    37.466752 
    9500    305.83212   -10460.652            0   -9549.9366    10884.028    782.15001    9.2136141    9.2136141    9.2136141    41.160715 
    9600    302.07516   -10461.855            0   -9562.3271    3212.9126    782.44372    9.2147672    9.2147672    9.2147672    52.526846 
    9700    306.81158   -10491.284            0   -9577.6516    2120.6356     783.2172    9.2178026    9.2178026    9.2178026    39.965009 
    9800    312.45793   -10523.949            0    -9593.503    3246.0203    784.33314    9.2221785    9.2221785    9.2221785    56.837503 
    9900    303.48906   -10506.646            0   -9602.9071     3200.665    785.69701    9.2275208    9.2275208    9.2275208    53.806235 
   10000    303.32879   -10513.056            0   -9609.7945   -14910.557     786.9124    9.2322763    9.2322763    9.2322763    44.468357 
Loop time of 23.0129 on 16 procs for 1000 steps with 1000 atoms

Performance: 3.754 ns/day, 6.392 hours/ns, 43.454 timesteps/s
94.6% CPU use with 16 MPI tasks x no OpenMP threads

MPI task timing breakdown:
Section |  min time  |  avg time  |  max time  |%varavg| %total
---------------------------------------------------------------
Pair    | 2.3708     | 2.5196     | 2.5974     |   3.7 | 10.95
Neigh   | 0.79991    | 0.83097    | 0.85557    |   1.7 |  3.61
Comm    | 0.86385    | 0.95757    | 1.1387     |   7.3 |  4.16
Output  | 13.166     | 13.51      | 18.621     |  35.9 | 58.71
Modify  | 0.083029   | 5.1864     | 5.5321     |  57.9 | 22.54
Other   |            | 0.008428   |            |       |  0.04

Nlocal:    62.5 ave 69 max 58 min
Histogram: 5 2 0 1 1 2 2 1 0 2
Nghost:    1853.25 ave 1872 max 1838 min
Histogram: 2 0 3 2 3 2 2 0 0 2
Neighs:    0 ave 0 max 0 min
Histogram: 16 0 0 0 0 0 0 0 0 0
FullNghs:  18743.4 ave 20767 max 17352 min
Histogram: 3 4 0 1 1 2 2 1 0 2

Total # of neighbors = 299894
Ave neighs/atom = 299.894
Neighbor list builds = 1000
Dangerous builds not checked
Setting up Verlet run ...
  Unit style    : real
  Current step  : 10000
  Time step     : 1
Per MPI rank memory allocation (min/avg/max) = 4.577 | 4.578 | 4.579 Mbytes
Step Temp E_pair E_mol TotEng Press Volume Lx Ly Lz S/CPU 
   10000    303.32879   -10513.056            0   -9609.7945   -14910.557     786.9124    9.2322763    9.2322763    9.2322763            0 
   10100    306.82657   -10528.405            0   -9614.7278    7610.1915    787.52064    9.2346544    9.2346544    9.2346544    51.422803 
   10200       301.04   -10513.585            0   -9617.1392   -23938.542    787.40837    9.2342156    9.2342156    9.2342156    46.941231 
   10300    294.79885   -10496.001            0   -9618.1409   -994.05078    786.43147    9.2303952    9.2303952    9.2303952    47.056414 
   10400    296.35035    -10501.95            0   -9619.4693    -1823.697    785.31918    9.2260415    9.2260415    9.2260415    43.009399 
   10500    303.11382   -10523.388            0   -9620.7664     15865.16    784.28387    9.2219854    9.2219854    9.2219854    47.835282 
   10600    303.68757   -10525.196            0   -9620.8665    5058.5993    783.79479     9.220068     9.220068     9.220068    38.297024 
   10700    300.99095   -10515.732            0   -9619.4322   -19898.106    783.57667    9.2192126    9.2192126    9.2192126    39.583967 
   10800    302.48943   -10518.025            0   -9617.2634   -6932.0535    783.16655    9.2176039    9.2176039    9.2176039    37.377495 
   10900    299.24434   -10504.446            0   -9613.3474    1680.7048    782.58843    9.2153353    9.2153353    9.2153353    39.838116 
   11000    299.26994   -10501.732            0   -9610.5568    2098.6077    781.99023    9.2129867    9.2129867    9.2129867    31.629717 
Loop time of 24.1004 on 16 procs for 1000 steps with 1000 atoms

Performance: 3.585 ns/day, 6.695 hours/ns, 41.493 timesteps/s
94.6% CPU use with 16 MPI tasks x no OpenMP threads

MPI task timing breakdown:
Section |  min time  |  avg time  |  max time  |%varavg| %total
---------------------------------------------------------------
Pair    | 2.3603     | 2.462      | 2.5886     |   4.5 | 10.22
Neigh   | 0.79       | 0.81799    | 0.84076    |   1.5 |  3.39
Comm    | 0.84605    | 0.98317    | 1.1005     |   8.1 |  4.08
Output  | 13.923     | 14.291     | 19.728     |  37.1 | 59.30
Modify  | 0.090832   | 5.5379     | 5.9129     |  59.8 | 22.98
Other   |            | 0.008516   |            |       |  0.04

Nlocal:    62.5 ave 67 max 56 min
Histogram: 1 0 1 2 2 3 0 2 2 3
Nghost:    1862.06 ave 1882 max 1845 min
Histogram: 2 1 1 3 2 1 3 2 0 1
Neighs:    0 ave 0 max 0 min
Histogram: 16 0 0 0 0 0 0 0 0 0
FullNghs:  18883.8 ave 20397 max 16579 min
Histogram: 1 0 0 3 1 3 1 2 3 2

Total # of neighbors = 302140
Ave neighs/atom = 302.14
Neighbor list builds = 1000
Dangerous builds not checked
Setting up Verlet run ...
  Unit style    : real
  Current step  : 11000
  Time step     : 1
Per MPI rank memory allocation (min/avg/max) = 4.577 | 4.578 | 4.579 Mbytes
Step Temp E_pair E_mol TotEng Press Volume Lx Ly Lz S/CPU 
   11000    299.26994   -10501.732            0   -9610.5568    2098.6077    781.99023    9.2129867    9.2129867    9.2129867            0 
   11100    304.36345   -10513.008            0   -9606.6658    8393.4575    781.93362    9.2127644    9.2127644    9.2127644    46.401636 
   11200    301.93099    -10502.26            0   -9603.1607   -1188.9574    782.43748    9.2147428    9.2147428    9.2147428    46.964801 
   11300    298.84809   -10486.931            0   -9597.0128   -6021.7189    782.45701    9.2148194    9.2148194    9.2148194    37.192301 
   11400    289.89853    -10451.29            0   -9588.0217    6935.8698    782.02017    9.2131042    9.2131042    9.2131042    46.870217 
   11500    300.41112   -10473.243            0   -9578.6702     2626.691    782.06392    9.2132761    9.2132761    9.2132761    50.239119 
   11600    295.92305   -10447.274            0   -9566.0658    3740.2927    782.48333    9.2149227    9.2149227    9.2149227    47.465284 
   11700    309.91816   -10476.258            0   -9553.3745     1948.282    783.21971    9.2178125    9.2178125    9.2178125    43.709382 
   11800    314.44133   -10478.287            0   -9541.9344   -7828.1477    784.54356    9.2230031    9.2230031    9.2230031    54.817337 
   11900    306.59313   -10445.861            0   -9532.8791    5101.0248    785.92195    9.2284013    9.2284013    9.2284013    43.898357 
   12000    306.26379   -10440.618            0   -9528.6165   -2320.5787    787.17822    9.2333158    9.2333158    9.2333158    45.328541 
Loop time of 21.8001 on 16 procs for 1000 steps with 1000 atoms

Performance: 3.963 ns/day, 6.056 hours/ns, 45.871 timesteps/s
94.6% CPU use with 16 MPI tasks x no OpenMP threads

MPI task timing breakdown:
Section |  min time  |  avg time  |  max time  |%varavg| %total
---------------------------------------------------------------
Pair    | 2.406      | 2.5084     | 2.718      |   5.0 | 11.51
Neigh   | 0.80025    | 0.82927    | 0.89374    |   2.3 |  3.80
Comm    | 0.70501    | 0.97866    | 1.1068     |   9.9 |  4.49
Output  | 11.994     | 12.334     | 17.376     |  37.1 | 56.58
Modify  | 0.099048   | 5.1419     | 5.481      |  57.4 | 23.59
Other   |            | 0.0084     |            |       |  0.04

Nlocal:    62.5 ave 69 max 57 min
Histogram: 1 1 2 5 1 2 0 0 2 2
Nghost:    1855.12 ave 1885 max 1825 min
Histogram: 2 1 2 2 0 3 0 2 1 3
Neighs:    0 ave 0 max 0 min
Histogram: 16 0 0 0 0 0 0 0 0 0
FullNghs:  18762.2 ave 20863 max 17230 min
Histogram: 2 2 4 2 0 2 0 1 1 2

Total # of neighbors = 300196
Ave neighs/atom = 300.196
Neighbor list builds = 1000
Dangerous builds not checked
Setting up Verlet run ...
  Unit style    : real
  Current step  : 12000
  Time step     : 1
Per MPI rank memory allocation (min/avg/max) = 4.577 | 4.578 | 4.579 Mbytes
Step Temp E_pair E_mol TotEng Press Volume Lx Ly Lz S/CPU 
   12000    306.26379   -10440.618            0   -9528.6165   -2320.5787    787.17822    9.2333158    9.2333158    9.2333158            0 
   12100    300.59697   -10421.212            0   -9526.0859    6178.3232    788.22227    9.2373961    9.2373961    9.2373961    46.886728 
   12200    298.73194    -10416.18            0   -9526.6076   -451.68822    789.19617     9.241199     9.241199     9.241199    49.761743 
   12300    310.43473    -10454.71            0   -9530.2881   -594.29476    789.90034    9.2439467    9.2439467    9.2439467    46.970104 
   12400    311.40176    -10462.31            0    -9535.009    11768.164    790.40024    9.2458964    9.2458964    9.2458964    47.059029 
   12500    312.92214   -10472.881            0   -9541.0518     1716.881    790.97127    9.2481224    9.2481224    9.2481224    48.360434 
   12600    302.14142   -10447.249            0   -9547.5236     633.8994    791.38981    9.2497533    9.2497533    9.2497533    49.696764 
   12700    307.71478   -10470.672            0   -9554.3502   -7053.0331    791.37816     9.249708     9.249708     9.249708    51.894003 
   12800    304.29481   -10466.884            0   -9560.7464    3018.4002    791.03822    9.2483833    9.2483833    9.2483833    48.309498 
   12900    308.65927    -10484.24            0   -9565.1051    637.82364    790.52132    9.2463684    9.2463684    9.2463684     50.19432 
   13000     296.1337   -10450.172            0   -9568.3365   -1815.6213    789.94193     9.244109     9.244109     9.244109    48.568163 
Loop time of 20.5246 on 16 procs for 1000 steps with 1000 atoms

Performance: 4.210 ns/day, 5.701 hours/ns, 48.722 timesteps/s
94.7% CPU use with 16 MPI tasks x no OpenMP threads

MPI task timing breakdown:
Section |  min time  |  avg time  |  max time  |%varavg| %total
---------------------------------------------------------------
Pair    | 2.331      | 2.4741     | 2.6089     |   4.7 | 12.05
Neigh   | 0.79001    | 0.82776    | 0.8795     |   2.3 |  4.03
Comm    | 0.76687    | 0.95786    | 1.1397     |   9.3 |  4.67
Output  | 10.981     | 11.308     | 16.15      |  37.2 | 55.09
Modify  | 0.1109     | 4.9488     | 5.2774     |  56.2 | 24.11
Other   |            | 0.008365   |            |       |  0.04

Nlocal:    62.5 ave 67 max 55 min
Histogram: 1 0 1 1 1 3 2 2 2 3
Nghost:    1840.69 ave 1864 max 1819 min
Histogram: 2 2 0 1 3 3 1 2 0 2
Neighs:    0 ave 0 max 0 min
Histogram: 16 0 0 0 0 0 0 0 0 0
FullNghs:  18695.1 ave 20304 max 16638 min
Histogram: 1 1 1 1 3 2 0 4 2 1

Total # of neighbors = 299122
Ave neighs/atom = 299.122
Neighbor list builds = 1000
Dangerous builds not checked
Setting up Verlet run ...
  Unit style    : real
  Current step  : 13000
  Time step     : 1
Per MPI rank memory allocation (min/avg/max) = 4.577 | 4.578 | 4.579 Mbytes
Step Temp E_pair E_mol TotEng Press Volume Lx Ly Lz S/CPU 
   13000     296.1337   -10450.172            0   -9568.3365   -1815.6213    789.94193     9.244109     9.244109     9.244109            0 
   13100    302.92633   -10474.706            0   -9572.6434   -8182.1019    789.06103    9.2406715    9.2406715    9.2406715     48.59668 
   13200    310.31862   -10500.799            0   -9576.7228    -7575.604    787.72619    9.2354578    9.2354578    9.2354578    48.308598 
   13300    304.47607   -10485.274            0    -9578.596    -4276.654    785.95704    9.2285387    9.2285387    9.2285387    61.693748 
   13400    301.63975   -10479.448            0   -9581.2165    8937.8071    784.05186    9.2210759    9.2210759    9.2210759    47.181617 
   13500     293.5579   -10459.892            0   -9585.7271   -3200.6769     782.4132    9.2146474    9.2146474    9.2146474    50.145436 
   13600     305.7001   -10501.126            0   -9590.8036    14551.866    781.33028    9.2103942    9.2103942    9.2103942    48.977419 
   13700    302.25001   -10494.456            0   -9594.4068    15495.279    781.11472    9.2095471    9.2095471    9.2095471    49.201882 
   13800    299.76369    -10492.87            0   -9600.2252   -582.66376    781.59629    9.2114393    9.2114393    9.2114393    42.883615 
   13900    304.77982   -10515.047            0   -9607.4643    3079.4697    782.17667    9.2137188    9.2137188    9.2137188    47.064564 
   14000    295.16298   -10492.953            0   -9614.0081    9982.3975    782.90294    9.2165696    9.2165696    9.2165696    41.141157 
Loop time of 20.8239 on 16 procs for 1000 steps with 1000 atoms

Performance: 4.149 ns/day, 5.784 hours/ns, 48.022 timesteps/s
94.7% CPU use with 16 MPI tasks x no OpenMP threads

MPI task timing breakdown:
Section |  min time  |  avg time  |  max time  |%varavg| %total
---------------------------------------------------------------
Pair    | 2.3565     | 2.5046     | 2.6282     |   4.2 | 12.03
Neigh   | 0.79552    | 0.82667    | 0.87086    |   2.0 |  3.97
Comm    | 0.78019    | 0.92556    | 1.1046     |   8.4 |  4.44
Output  | 11.474     | 11.793     | 16.502     |  35.4 | 56.63
Modify  | 0.056214   | 4.7656     | 5.0845     |  55.7 | 22.89
Other   |            | 0.008399   |            |       |  0.04

Nlocal:    62.5 ave 69 max 57 min
Histogram: 2 1 3 1 1 3 1 2 0 2
Nghost:    1875 ave 1905 max 1845 min
Histogram: 2 0 0 3 4 3 0 0 2 2
Neighs:    0 ave 0 max 0 min
Histogram: 16 0 0 0 0 0 0 0 0 0
FullNghs:  18860.1 ave 21164 max 17226 min
Histogram: 2 3 2 1 3 0 3 0 1 1

Total # of neighbors = 301762
Ave neighs/atom = 301.762
Neighbor list builds = 1000
Dangerous builds not checked
Setting up Verlet run ...
  Unit style    : real
  Current step  : 14000
  Time step     : 1
Per MPI rank memory allocation (min/avg/max) = 4.577 | 4.578 | 4.579 Mbytes
Step Temp E_pair E_mol TotEng Press Volume Lx Ly Lz S/CPU 
   14000    295.16298   -10492.953            0   -9614.0081    9982.3975    782.90294    9.2165696    9.2165696    9.2165696            0 
   14100    300.23838    -10513.49            0    -9619.431   -4315.4648    783.90283    9.2204916    9.2204916    9.2204916     46.94834 
   14200    297.88711   -10510.922            0   -9623.8654    4166.5968    784.74942    9.2238097    9.2238097    9.2238097    51.029605 
   14300    302.00347   -10526.968            0    -9627.653    7981.2894    785.35231    9.2261712    9.2261712    9.2261712    53.507788 
   14400    297.61065   -10517.104            0   -9630.8701    4957.7153    786.09838    9.2290918    9.2290918    9.2290918     47.37955 
   14500     297.2087   -10520.483            0    -9635.446   -13488.479    787.16576    9.2332671    9.2332671    9.2332671    55.636514 
   14600    299.32792   -10530.193            0   -9638.8452   -16117.348    787.77547    9.2356504    9.2356504    9.2356504     49.24288 
   14700    296.78803   -10525.525            0    -9641.741   -7016.1028    787.20801    9.2334323    9.2334323    9.2334323    40.508854 
   14800    287.89818   -10499.646            0   -9642.3343   -23506.096    785.67781    9.2274456    9.2274456    9.2274456    43.079372 
   14900    293.47314    -10518.19            0   -9644.2767   -13945.266    782.88304    9.2164915    9.2164915    9.2164915    46.641926 
   15000    302.16145   -10543.428            0   -9643.6424    3128.6755    779.26654    9.2022779    9.2022779    9.2022779    46.897762 
Loop time of 20.9635 on 16 procs for 1000 steps with 1000 atoms

Performance: 4.121 ns/day, 5.823 hours/ns, 47.702 timesteps/s
94.7% CPU use with 16 MPI tasks x no OpenMP threads

MPI task timing breakdown:
Section |  min time  |  avg time  |  max time  |%varavg| %total
---------------------------------------------------------------
Pair    | 2.3234     | 2.4913     | 2.6433     |   5.3 | 11.88
Neigh   | 0.78478    | 0.82569    | 0.86897    |   2.5 |  3.94
Comm    | 0.75375    | 0.9481     | 1.1568     |  10.5 |  4.52
Output  | 10.861     | 11.222     | 16.582     |  41.3 | 53.53
Modify  | 0.10648    | 5.468      | 5.8285     |  59.2 | 26.08
Other   |            | 0.008389   |            |       |  0.04

Nlocal:    62.5 ave 68 max 59 min
Histogram: 2 3 1 1 4 1 3 0 0 1
Nghost:    1876.88 ave 1898 max 1850 min
Histogram: 1 1 1 2 2 1 2 3 0 3
Neighs:    0 ave 0 max 0 min
Histogram: 16 0 0 0 0 0 0 0 0 0
FullNghs:  18941.8 ave 20618 max 17964 min
Histogram: 5 1 1 0 4 2 2 0 0 1

Total # of neighbors = 303068
Ave neighs/atom = 303.068
Neighbor list builds = 1000
Dangerous builds not checked
Setting up Verlet run ...
  Unit style    : real
  Current step  : 15000
  Time step     : 1
Per MPI rank memory allocation (min/avg/max) = 4.577 | 4.578 | 4.579 Mbytes
Step Temp E_pair E_mol TotEng Press Volume Lx Ly Lz S/CPU 
   15000    302.16145   -10543.428            0   -9643.6424    3128.6755    779.26654    9.2022779    9.2022779    9.2022779            0 
   15100    298.32291   -10529.165            0   -9640.8108    23084.699    775.64428    9.1879974    9.1879974    9.1879974    41.473056 
   15200    295.28967    -10516.06            0   -9636.7376    16425.204    772.74567    9.1765378    9.1765378    9.1765378    44.007404 
   15300    303.10856    -10533.44            0   -9630.8342    24878.669    770.84462    9.1690065    9.1690065    9.1690065    44.362802 
   15400    297.38741    -10508.78            0   -9623.2111   -522.60047    770.25149    9.1666542    9.1666542    9.1666542    41.618613 
   15500    296.51367   -10498.602            0   -9615.6345    13290.398    770.64497    9.1682149    9.1682149    9.1682149    41.400546 
   15600    288.40491   -10466.784            0   -9607.9631    5740.2786    772.04011    9.1737441    9.1737441    9.1737441     49.45984 
   15700    299.67707   -10494.622            0   -9602.2347    13006.012    774.15033    9.1820947    9.1820947    9.1820947    47.614084 
   15800    304.93835   -10504.217            0   -9596.1622    894.28863    777.20105    9.1941403    9.1941403    9.1941403     32.35153 
   15900    307.35827   -10506.905            0   -9591.6444     10772.42    780.46892    9.2070084    9.2070084    9.2070084    31.643495 
   16000    298.04757    -10474.48            0   -9586.9448   -3390.2452    783.72053    9.2197768    9.2197768    9.2197768    59.616363 
Loop time of 23.8066 on 16 procs for 1000 steps with 1000 atoms

Performance: 3.629 ns/day, 6.613 hours/ns, 42.005 timesteps/s
94.6% CPU use with 16 MPI tasks x no OpenMP threads

MPI task timing breakdown:
Section |  min time  |  avg time  |  max time  |%varavg| %total
---------------------------------------------------------------
Pair    | 2.4316     | 2.516      | 2.6759     |   4.2 | 10.57
Neigh   | 0.78891    | 0.81936    | 0.86407    |   1.9 |  3.44
Comm    | 0.81755    | 1.0211     | 1.1274     |   8.1 |  4.29
Output  | 13.319     | 13.7       | 19.371     |  39.6 | 57.55
Modify  | 0.069909   | 5.7413     | 6.1227     |  61.1 | 24.12
Other   |            | 0.00837    |            |       |  0.04

Nlocal:    62.5 ave 66 max 56 min
Histogram: 1 0 1 0 0 3 3 2 0 6
Nghost:    1854.38 ave 1873 max 1834 min
Histogram: 1 1 0 2 3 6 0 0 2 1
Neighs:    0 ave 0 max 0 min
Histogram: 16 0 0 0 0 0 0 0 0 0
FullNghs:  18803.8 ave 20015 max 16883 min
Histogram: 1 1 0 0 3 3 2 1 3 2

Total # of neighbors = 300860
Ave neighs/atom = 300.86
Neighbor list builds = 1000
Dangerous builds not checked
Setting up Verlet run ...
  Unit style    : real
  Current step  : 16000
  Time step     : 1
Per MPI rank memory allocation (min/avg/max) = 4.577 | 4.578 | 4.579 Mbytes
Step Temp E_pair E_mol TotEng Press Volume Lx Ly Lz S/CPU 
   16000    298.04757    -10474.48            0   -9586.9448   -3390.2452    783.72053    9.2197768    9.2197768    9.2197768            0 
   16100    304.86082   -10493.061            0   -9585.2379   -6939.0713    786.71573    9.2315072    9.2315072    9.2315072    32.823007 
   16200    304.30782   -10490.745            0   -9584.5682   -11475.919    789.11158    9.2408688    9.2408688    9.2408688     45.93475 
   16300     292.3223   -10454.513            0   -9584.0268   -18437.531    790.57114    9.2465627    9.2465627    9.2465627    48.650745 
   16400    298.98759    -10476.64            0   -9586.3058   -24742.564     790.8035    9.2474685    9.2474685    9.2474685    47.614988 
   16500     298.5961   -10478.145            0   -9588.9768    -13073.06    789.33556     9.241743     9.241743     9.241743    41.717926 
   16600    302.90452   -10494.297            0   -9592.2993   -3243.9355     787.1813    9.2333278    9.2333278    9.2333278    57.697345 
   16700    307.42106   -10512.349            0   -9596.9016    14617.248    784.77829    9.2239228    9.2239228    9.2239228    42.027907 
   16800    312.37697   -10534.118            0   -9603.9125   -1606.2557     782.6676     9.215646     9.215646     9.215646     42.92484 
   16900    308.60784   -10531.537            0   -9612.5555    1256.5781    780.54617    9.2073121    9.2073121    9.2073121    48.691427 
   17000    300.90021   -10520.318            0   -9624.2885   -1818.7912    778.36724    9.1987366    9.1987366    9.1987366    51.253832 
Loop time of 22.2234 on 16 procs for 1000 steps with 1000 atoms

Performance: 3.888 ns/day, 6.173 hours/ns, 44.998 timesteps/s
94.7% CPU use with 16 MPI tasks x no OpenMP threads

MPI task timing breakdown:
Section |  min time  |  avg time  |  max time  |%varavg| %total
---------------------------------------------------------------
Pair    | 2.3677     | 2.4682     | 2.5853     |   3.5 | 11.11
Neigh   | 0.79618    | 0.82184    | 0.84693    |   1.7 |  3.70
Comm    | 0.89011    | 1.017      | 1.1441     |   6.7 |  4.58
Output  | 12.519     | 12.855     | 17.838     |  35.9 | 57.84
Modify  | 0.074118   | 5.0525     | 5.3884     |  57.2 | 22.74
Other   |            | 0.00886    |            |       |  0.04

Nlocal:    62.5 ave 67 max 58 min
Histogram: 1 0 3 0 4 2 4 1 0 1
Nghost:    1871.56 ave 1888 max 1849 min
Histogram: 1 0 0 2 0 5 5 1 1 1
Neighs:    0 ave 0 max 0 min
Histogram: 16 0 0 0 0 0 0 0 0 0
FullNghs:  18961.9 ave 20372 max 17442 min
Histogram: 1 0 2 1 2 4 2 3 0 1

Total # of neighbors = 303390
Ave neighs/atom = 303.39
Neighbor list builds = 1000
Dangerous builds not checked
Setting up Verlet run ...
  Unit style    : real
  Current step  : 17000
  Time step     : 1
Per MPI rank memory allocation (min/avg/max) = 4.577 | 4.578 | 4.579 Mbytes
Step Temp E_pair E_mol TotEng Press Volume Lx Ly Lz S/CPU 
   17000    300.90021   -10520.318            0   -9624.2885   -1818.7912    778.36724    9.1987366    9.1987366    9.1987366            0 
   17100    292.73918    -10507.02            0   -9635.2927    7046.7381    776.14522     9.189975     9.189975     9.189975    47.651063 
   17200    300.14321   -10538.307            0   -9644.5318    17588.667    774.26799    9.1825598    9.1825598    9.1825598     40.57465 
   17300    297.02182   -10537.641            0   -9653.1604      16551.9    773.44078    9.1792886    9.1792886    9.1792886    42.716799 
   17400     295.9081   -10539.118            0   -9657.9538    8900.3639    773.73347    9.1804463    9.1804463    9.1804463    41.463249 
   17500     288.8123   -10520.965            0   -9660.9311   -856.28269    774.52046    9.1835578    9.1835578    9.1835578     40.31899 
   17600    292.30593   -10533.279            0   -9662.8422    4186.9544    775.64154    9.1879866    9.1879866    9.1879866    42.607456 
   17700    290.05686   -10526.782            0   -9663.0418    2292.6796    777.28339     9.194465     9.194465     9.194465    46.816245 
   17800    296.83012   -10546.105            0   -9662.1956    433.84609    779.35599      9.20263      9.20263      9.20263    45.998302 
   17900    294.76048   -10536.951            0   -9659.2047   -638.93333    781.85911    9.2124717    9.2124717    9.2124717    44.829426 
   18000    288.13014   -10511.397            0   -9653.3949   -2510.3006    784.22798    9.2217663    9.2217663    9.2217663    46.947096 
Loop time of 22.8139 on 16 procs for 1000 steps with 1000 atoms

Performance: 3.787 ns/day, 6.337 hours/ns, 43.833 timesteps/s
94.6% CPU use with 16 MPI tasks x no OpenMP threads

MPI task timing breakdown:
Section |  min time  |  avg time  |  max time  |%varavg| %total
---------------------------------------------------------------
Pair    | 2.3233     | 2.5663     | 2.7133     |   5.7 | 11.25
Neigh   | 0.77486    | 0.83707    | 0.86603    |   2.3 |  3.67
Comm    | 0.7804     | 0.94839    | 1.2531     |  11.4 |  4.16
Output  | 13.078     | 13.414     | 18.355     |  34.8 | 58.80
Modify  | 0.10155    | 5.04       | 5.376      |  56.8 | 22.09
Other   |            | 0.008458   |            |       |  0.04

Nlocal:    62.5 ave 66 max 58 min
Histogram: 2 0 0 2 0 5 1 3 1 2
Nghost:    1865.81 ave 1876 max 1856 min
Histogram: 2 1 2 1 3 1 1 0 2 3
Neighs:    0 ave 0 max 0 min
Histogram: 16 0 0 0 0 0 0 0 0 0
FullNghs:  18819 ave 19941 max 17407 min
Histogram: 2 0 0 1 4 2 3 1 1 2

Total # of neighbors = 301104
Ave neighs/atom = 301.104
Neighbor list builds = 1000
Dangerous builds not checked
Setting up Verlet run ...
  Unit style    : real
  Current step  : 18000
  Time step     : 1
Per MPI rank memory allocation (min/avg/max) = 4.577 | 4.578 | 4.579 Mbytes
Step Temp E_pair E_mol TotEng Press Volume Lx Ly Lz S/CPU 
   18000    288.13014   -10511.397            0   -9653.3949   -2510.3006    784.22798    9.2217663    9.2217663    9.2217663            0 
   18100    293.72662    -10519.64            0   -9644.9725   -1237.8832    786.39294    9.2302444    9.2302444    9.2302444     41.13374 
   18200     289.1548    -10496.85            0   -9635.7965    -12881.69    788.40764    9.2381202    9.2381202    9.2381202    45.287882 
   18300    299.99144   -10518.293            0   -9624.9698   -7918.6869    790.06995    9.2446083    9.2446083    9.2446083    43.719902 
   18400    282.06934   -10450.371            0   -9610.4162   -1420.1637    791.41863    9.2498656    9.2498656    9.2498656     49.59432 
   18500     308.3307   -10514.356            0   -9596.1994   -599.20763    792.04803    9.2523171    9.2523171    9.2523171    51.043233 
   18600    301.57334   -10483.155            0   -9585.1207   -9212.3894    792.17852    9.2528251    9.2528251    9.2528251    45.594871 
   18700    299.27108   -10469.523            0    -9578.345   -14402.246    791.47548    9.2500871    9.2500871    9.2500871    55.913903 
   18800    303.78231   -10478.768            0   -9574.1561   -11778.039    789.59252    9.2427458    9.2427458    9.2427458    38.148932 
   18900     302.8956   -10473.736            0   -9571.7649   -258.01737     787.1691    9.2332801    9.2332801    9.2332801    54.474763 
   19000     301.6476   -10469.772            0    -9571.517    1974.5623    784.58764    9.2231758    9.2231758    9.2231758    37.422855 
Loop time of 22.0129 on 16 procs for 1000 steps with 1000 atoms

Performance: 3.925 ns/day, 6.115 hours/ns, 45.428 timesteps/s
94.6% CPU use with 16 MPI tasks x no OpenMP threads

MPI task timing breakdown:
Section |  min time  |  avg time  |  max time  |%varavg| %total
---------------------------------------------------------------
Pair    | 2.3576     | 2.4384     | 2.533      |   3.1 | 11.08
Neigh   | 0.7924     | 0.81939    | 0.85444    |   1.7 |  3.72
Comm    | 0.8175     | 0.94633    | 1.0553     |   6.4 |  4.30
Output  | 11.943     | 12.308     | 17.727     |  39.9 | 55.91
Modify  | 0.072717   | 5.4925     | 5.857      |  59.7 | 24.95
Other   |            | 0.00876    |            |       |  0.04

Nlocal:    62.5 ave 68 max 58 min
Histogram: 1 3 1 1 3 1 2 1 1 2
Nghost:    1854.5 ave 1875 max 1839 min
Histogram: 3 3 1 1 2 1 0 1 2 2
Neighs:    0 ave 0 max 0 min
Histogram: 16 0 0 0 0 0 0 0 0 0
FullNghs:  18823.2 ave 20534 max 17397 min
Histogram: 2 2 2 0 4 0 3 0 1 2

Total # of neighbors = 301172
Ave neighs/atom = 301.172
Neighbor list builds = 1000
Dangerous builds not checked
Setting up Verlet run ...
  Unit style    : real
  Current step  : 19000
  Time step     : 1
Per MPI rank memory allocation (min/avg/max) = 4.577 | 4.578 | 4.579 Mbytes
Step Temp E_pair E_mol TotEng Press Volume Lx Ly Lz S/CPU 
   19000     301.6476   -10469.772            0    -9571.517    1974.5623    784.58764    9.2231758    9.2231758    9.2231758            0 
   19100     298.2963   -10458.112            0    -9569.837    20943.349    782.44653    9.2147783    9.2147783    9.2147783    47.205683 
   19200    303.80817   -10475.144            0   -9570.4555    15095.896    781.16394    9.2097405    9.2097405    9.2097405    47.148431 
   19300    298.76031   -10461.297            0   -9571.6402    6691.4642    780.74809     9.208106     9.208106     9.208106    49.570202 
   19400    303.03599   -10478.143            0   -9575.7538    4272.7255    780.90387    9.2087184    9.2087184    9.2087184    46.809946 
   19500    319.70953   -10532.625            0   -9580.5842     86.50751    781.39256    9.2106389    9.2106389    9.2106389    36.091698 
   19600    301.75623   -10483.199            0   -9584.6209    6604.4331    782.32714    9.2143096    9.2143096    9.2143096    38.849532 
   19700    297.72729   -10477.836            0   -9591.2552    19099.191    783.86849     9.220357     9.220357     9.220357    49.319545 
   19800    301.34911   -10496.922            0    -9599.556   -2871.9848    786.25879    9.2297195    9.2297195    9.2297195    41.801406 
   19900    292.17362   -10476.519            0   -9606.4762    8514.8998    788.97931    9.2403525    9.2403525    9.2403525      48.1746 
   20000    296.71857   -10497.358            0   -9613.7805   -368.40305    791.73135    9.2510838    9.2510838    9.2510838    46.083514 
Loop time of 22.4034 on 16 procs for 1000 steps with 1000 atoms

Performance: 3.857 ns/day, 6.223 hours/ns, 44.636 timesteps/s
94.6% CPU use with 16 MPI tasks x no OpenMP threads

MPI task timing breakdown:
Section |  min time  |  avg time  |  max time  |%varavg| %total
---------------------------------------------------------------
Pair    | 2.3532     | 2.5373     | 2.638      |   4.0 | 11.33
Neigh   | 0.80383    | 0.83565    | 0.86562    |   2.0 |  3.73
Comm    | 0.82537    | 0.95582    | 1.1724     |   8.0 |  4.27
Output  | 11.882     | 12.266     | 17.98      |  42.1 | 54.75
Modify  | 0.08926    | 5.8        | 6.1859     |  61.2 | 25.89
Other   |            | 0.008467   |            |       |  0.04

Nlocal:    62.5 ave 70 max 57 min
Histogram: 2 2 0 2 6 0 2 1 0 1
Nghost:    1842 ave 1866 max 1825 min
Histogram: 4 3 1 1 1 1 0 2 1 2
Neighs:    0 ave 0 max 0 min
Histogram: 16 0 0 0 0 0 0 0 0 0
FullNghs:  18632 ave 20859 max 16898 min
Histogram: 2 2 0 2 3 3 2 0 1 1

Total # of neighbors = 298112
Ave neighs/atom = 298.112
Neighbor list builds = 1000
Dangerous builds not checked
Setting up Verlet run ...
  Unit style    : real
  Current step  : 20000
  Time step     : 1
Per MPI rank memory allocation (min/avg/max) = 4.577 | 4.578 | 4.579 Mbytes
Step Temp E_pair E_mol TotEng Press Volume Lx Ly Lz S/CPU 
   20000    296.71857   -10497.358            0   -9613.7805   -368.40305    791.73135    9.2510838    9.2510838    9.2510838            0 
   20100    291.66212   -10488.056            0   -9619.5356   -20822.077    793.81319    9.2591852    9.2591852    9.2591852    46.143035 
   20200    294.30665   -10502.652            0   -9626.2574   -11226.667    794.40034    9.2614675    9.2614675    9.2614675    46.489586 
   20300    287.58541   -10486.739            0   -9630.3592    -23733.32    793.82592    9.2592347    9.2592347    9.2592347    35.615756 
   20400    284.97614   -10482.965            0    -9634.355   -16495.181    792.21301    9.2529594    9.2529594    9.2529594    48.998789 
   20500     288.6056   -10496.539            0   -9637.1205    5437.9148    789.61603    9.2428375    9.2428375    9.2428375    35.218381 
   20600    297.75623   -10525.248            0   -9638.5811   -1347.4295     786.6927    9.2314171    9.2314171    9.2314171    35.648393 
   20700    294.12607   -10513.225            0   -9637.3683    13571.833     783.6818    9.2196249    9.2196249    9.2196249     48.64402 
   20800    300.15567   -10530.908            0   -9637.0962    5228.5355    780.84072    9.2084701    9.2084701    9.2084701    47.403419 
   20900    292.91957   -10504.596            0   -9632.3315   -1989.9455    777.99653     9.197276     9.197276     9.197276    49.257677 
   21000    296.92158   -10509.858            0   -9625.6767    18872.423    775.22341    9.1863353    9.1863353    9.1863353    42.341312 
Loop time of 23.3686 on 16 procs for 1000 steps with 1000 atoms

Performance: 3.697 ns/day, 6.491 hours/ns, 42.792 timesteps/s
94.6% CPU use with 16 MPI tasks x no OpenMP threads

MPI task timing breakdown:
Section |  min time  |  avg time  |  max time  |%varavg| %total
---------------------------------------------------------------
Pair    | 2.3654     | 2.4457     | 2.5177     |   3.1 | 10.47
Neigh   | 0.79338    | 0.81772    | 0.84376    |   1.5 |  3.50
Comm    | 0.88059    | 0.96506    | 1.07       |   5.9 |  4.13
Output  | 12.992     | 13.374     | 19.038     |  40.0 | 57.23
Modify  | 0.093095   | 5.7574     | 6.1395     |  61.0 | 24.64
Other   |            | 0.00834    |            |       |  0.04

Nlocal:    62.5 ave 71 max 56 min
Histogram: 2 0 2 2 4 1 3 0 1 1
Nghost:    1869.69 ave 1891 max 1843 min
Histogram: 2 1 1 0 2 1 4 1 2 2
Neighs:    0 ave 0 max 0 min
Histogram: 16 0 0 0 0 0 0 0 0 0
FullNghs:  19057.6 ave 21416 max 17046 min
Histogram: 2 1 1 2 3 2 3 0 1 1

Total # of neighbors = 304922
Ave neighs/atom = 304.922
Neighbor list builds = 1000
Dangerous builds not checked
Setting up Verlet run ...
  Unit style    : real
  Current step  : 21000
  Time step     : 1
Per MPI rank memory allocation (min/avg/max) = 4.577 | 4.578 | 4.579 Mbytes
Step Temp E_pair E_mol TotEng Press Volume Lx Ly Lz S/CPU 
   21000    296.92158   -10509.858            0   -9625.6767    18872.423    775.22341    9.1863353    9.1863353    9.1863353            0 
   21100    302.91809   -10517.908            0   -9615.8698    9956.7292    773.04651    9.1777285    9.1777285    9.1777285    52.124672 
   21200    300.26953   -10496.805            0   -9602.6535    22347.982    771.70104    9.1724009    9.1724009    9.1724009    47.366295 
   21300    308.04214   -10507.227            0     -9589.93    20063.639    771.21373    9.1704698    9.1704698    9.1704698    47.771198 
   21400    313.37953   -10511.047            0   -9577.8565    13533.697    771.62181     9.172087     9.172087     9.172087    36.189381 
   21500    307.15913   -10482.593            0   -9567.9258    4278.2394    773.11724    9.1780084    9.1780084    9.1780084    39.538817 
   21600    301.90451   -10459.782            0   -9560.7622    17351.928     775.7987    9.1886071    9.1886071    9.1886071    40.894403 
   21700    305.95046    -10465.71            0   -9554.6419    7586.9838    779.89096    9.2047351    9.2047351    9.2047351    49.254359 
   21800    305.69333   -10461.808            0   -9551.5051    2857.9662    784.67253    9.2235084    9.2235084    9.2235084    46.129151 
   21900    309.91286    -10471.71            0   -9548.8426   -20358.783    789.55996    9.2426187    9.2426187    9.2426187    58.946914 
   22000    298.34898   -10434.711            0   -9546.2785   -22735.443    793.39956    9.2575767    9.2575767    9.2575767    46.446043 
Loop time of 21.9083 on 16 procs for 1000 steps with 1000 atoms

Performance: 3.944 ns/day, 6.086 hours/ns, 45.645 timesteps/s
94.7% CPU use with 16 MPI tasks x no OpenMP threads

MPI task timing breakdown:
Section |  min time  |  avg time  |  max time  |%varavg| %total
---------------------------------------------------------------
Pair    | 2.4545     | 2.5762     | 2.7712     |   5.9 | 11.76
Neigh   | 0.80052    | 0.84052    | 0.88879    |   2.6 |  3.84
Comm    | 0.71874    | 0.95779    | 1.1204     |  11.7 |  4.37
Output  | 12.238     | 12.567     | 17.454     |  35.6 | 57.36
Modify  | 0.067426   | 4.9584     | 5.2995     |  56.7 | 22.63
Other   |            | 0.0085     |            |       |  0.04

Nlocal:    62.5 ave 65 max 58 min
Histogram: 1 0 1 0 3 3 0 2 3 3
Nghost:    1851.5 ave 1880 max 1837 min
Histogram: 5 2 1 2 2 0 2 1 0 1
Neighs:    0 ave 0 max 0 min
Histogram: 16 0 0 0 0 0 0 0 0 0
FullNghs:  18618.6 ave 19568 max 17114 min
Histogram: 1 0 0 1 3 2 3 2 1 3

Total # of neighbors = 297898
Ave neighs/atom = 297.898
Neighbor list builds = 1000
Dangerous builds not checked
Setting up Verlet run ...
  Unit style    : real
  Current step  : 22000
  Time step     : 1
Per MPI rank memory allocation (min/avg/max) = 4.577 | 4.578 | 4.58 Mbytes
Step Temp E_pair E_mol TotEng Press Volume Lx Ly Lz S/CPU 
   22000    298.34898   -10434.711            0   -9546.2785   -22735.443    793.39956    9.2575767    9.2575767    9.2575767            0 
   22100    298.83795   -10437.227            0   -9547.3386   -18864.346    795.94493    9.2674661    9.2674661    9.2674661    47.397756 
   22200    305.76536   -10459.549            0   -9549.0315   -21430.345    796.93275    9.2712984    9.2712984    9.2712984    38.712335 
   22300    292.76966   -10421.929            0   -9550.1112   -12599.723    796.35927    9.2690739    9.2690739    9.2690739    50.764626 
   22400    290.29033   -10416.818            0   -9552.3826   -16576.982    794.93192    9.2635328    9.2635328    9.2635328    49.505392 
   22500    306.05677   -10468.371            0   -9556.9864   -19039.483    792.78015    9.2551669    9.2551669    9.2551669    39.410974 
   22600     305.7925   -10474.371            0    -9563.773   -7607.5335    789.63609    9.2429158    9.2429158    9.2429158    45.173007 
   22700    297.81219   -10460.522            0   -9573.6885   -3145.2196    785.96043    9.2285519    9.2285519    9.2285519    39.464505 
   22800    299.22436   -10478.932            0   -9587.8925   -975.14728    782.05965    9.2132593    9.2132593    9.2132593     49.95959 
   22900    301.09735   -10502.756            0   -9606.1394    4068.4411    778.67468    9.1999475    9.1999475    9.1999475     49.39977 
   23000     299.0524   -10514.713            0   -9624.1857    13385.712    776.32145    9.1906705    9.1906705    9.1906705    44.462739 
Loop time of 22.2428 on 16 procs for 1000 steps with 1000 atoms

Performance: 3.884 ns/day, 6.179 hours/ns, 44.958 timesteps/s
94.6% CPU use with 16 MPI tasks x no OpenMP threads

MPI task timing breakdown:
Section |  min time  |  avg time  |  max time  |%varavg| %total
---------------------------------------------------------------
Pair    | 2.2775     | 2.4665     | 2.5897     |   5.1 | 11.09
Neigh   | 0.77805    | 0.82733    | 0.86081    |   2.5 |  3.72
Comm    | 0.81617    | 0.97268    | 1.2113     |  10.2 |  4.37
Output  | 12.02      | 12.392     | 17.875     |  40.2 | 55.71
Modify  | 0.09301    | 5.5758     | 5.9482     |  60.0 | 25.07
Other   |            | 0.008348   |            |       |  0.04

Nlocal:    62.5 ave 70 max 57 min
Histogram: 2 1 2 3 2 1 3 1 0 1
Nghost:    1860.19 ave 1893 max 1831 min
Histogram: 2 2 1 2 1 1 5 0 0 2
Neighs:    0 ave 0 max 0 min
Histogram: 16 0 0 0 0 0 0 0 0 0
FullNghs:  19020 ave 21520 max 17230 min
Histogram: 2 1 3 2 2 3 1 1 0 1

Total # of neighbors = 304320
Ave neighs/atom = 304.32
Neighbor list builds = 1000
Dangerous builds not checked
Setting up Verlet run ...
  Unit style    : real
  Current step  : 23000
  Time step     : 1
Per MPI rank memory allocation (min/avg/max) = 4.577 | 4.578 | 4.58 Mbytes
Step Temp E_pair E_mol TotEng Press Volume Lx Ly Lz S/CPU 
   23000     299.0524   -10514.713            0   -9624.1857    13385.712    776.32145    9.1906705    9.1906705    9.1906705            0 
   23100    305.22518   -10546.565            0   -9637.6566     13310.25    774.94539     9.185237     9.185237     9.185237    41.368433 
   23200    289.09346   -10507.196            0   -9646.3248    21719.124    774.56505     9.183734     9.183734     9.183734     43.32913 
   23300    284.95614    -10499.47            0   -9650.9188   -3776.1971    775.14351    9.1860197    9.1860197    9.1860197    41.341782 
   23400    294.69971   -10532.677            0   -9655.1115    480.84749    776.49878    9.1913702    9.1913702    9.1913702    46.103751 
   23500    296.44727   -10538.746            0   -9655.9768    2514.2195    778.35641    9.1986939    9.1986939    9.1986939    47.633396 
   23600    296.23526   -10540.528            0   -9658.3899   -13452.558    780.08713    9.2055068    9.2055068    9.2055068     43.50704 
   23700    301.23741   -10556.937            0   -9659.9038   -4381.6499    781.04673    9.2092799    9.2092799    9.2092799    44.035718 
   23800    287.83518   -10517.596            0   -9660.4724   -6238.7787    781.27768    9.2101875    9.2101875    9.2101875    30.671166 
   23900    295.56092   -10541.951            0   -9661.8208   -5626.2758    780.76601    9.2081765    9.2081765    9.2081765    37.147054 
   24000    302.57597   -10562.426            0   -9661.4063   -2701.1873    779.99365    9.2051391    9.2051391    9.2051391    48.856101 
Loop time of 23.9811 on 16 procs for 1000 steps with 1000 atoms

Performance: 3.603 ns/day, 6.661 hours/ns, 41.700 timesteps/s
94.6% CPU use with 16 MPI tasks x no OpenMP threads

MPI task timing breakdown:
Section |  min time  |  avg time  |  max time  |%varavg| %total
---------------------------------------------------------------
Pair    | 2.4271     | 2.5278     | 2.6803     |   3.8 | 10.54
Neigh   | 0.79289    | 0.82674    | 0.85545    |   1.6 |  3.45
Comm    | 0.78355    | 0.96409    | 1.06       |   7.3 |  4.02
Output  | 12.899     | 13.321     | 19.581     |  44.3 | 55.55
Modify  | 0.072242   | 6.3331     | 6.7553     |  64.2 | 26.41
Other   |            | 0.008455   |            |       |  0.04

Nlocal:    62.5 ave 68 max 59 min
Histogram: 2 1 3 4 1 2 1 0 1 1
Nghost:    1863.75 ave 1880 max 1851 min
Histogram: 3 2 0 2 4 1 0 1 1 2
Neighs:    0 ave 0 max 0 min
Histogram: 16 0 0 0 0 0 0 0 0 0
FullNghs:  18910.4 ave 20717 max 17691 min
Histogram: 2 1 3 3 2 2 1 0 1 1

Total # of neighbors = 302566
Ave neighs/atom = 302.566
Neighbor list builds = 1000
Dangerous builds not checked
Setting up Verlet run ...
  Unit style    : real
  Current step  : 24000
  Time step     : 1
Per MPI rank memory allocation (min/avg/max) = 4.577 | 4.578 | 4.58 Mbytes
Step Temp E_pair E_mol TotEng Press Volume Lx Ly Lz S/CPU 
   24000    302.57597   -10562.426            0   -9661.4063   -2701.1873    779.99365    9.2051391    9.2051391    9.2051391            0 
   24100    297.42933   -10545.733            0    -9660.039    14141.286    779.00182    9.2012357    9.2012357    9.2012357    34.307031 
   24200    293.85621   -10533.121            0    -9658.067    12676.075    778.47826    9.1991739    9.1991739    9.1991739    43.694912 
   24300    301.21206    -10553.53            0   -9656.5723     83.75472    778.57007    9.1995355    9.1995355    9.1995355    45.343229 
   24400    284.64198   -10501.132            0   -9653.5171    677.51672    778.89328    9.2008084    9.2008084    9.2008084    41.806257 
   24500    288.35677   -10509.409            0   -9650.7322    15789.498     779.0157    9.2012904    9.2012904    9.2012904    47.619279 
   24600    291.13842   -10512.687            0   -9645.7265    2595.7995    779.48447    9.2031356    9.2031356    9.2031356    59.151951 
   24700     296.6536   -10521.121            0   -9637.7377    18511.375    780.39046    9.2066998    9.2066998    9.2066998    49.496176 
   24800    293.04433   -10499.674            0   -9627.0385   -6497.3887    781.68661    9.2117941    9.2117941    9.2117941    51.531568 
   24900    298.87959   -10505.877            0   -9615.8641   -11740.026    782.97848     9.216866     9.216866     9.216866    47.372774 
   25000    294.92867   -10482.792            0   -9604.5446   -8743.2446    784.24199    9.2218212    9.2218212    9.2218212    45.616813 
Loop time of 21.8554 on 16 procs for 1000 steps with 1000 atoms

Performance: 3.953 ns/day, 6.071 hours/ns, 45.755 timesteps/s
94.6% CPU use with 16 MPI tasks x no OpenMP threads

MPI task timing breakdown:
Section |  min time  |  avg time  |  max time  |%varavg| %total
---------------------------------------------------------------
Pair    | 2.2987     | 2.4628     | 2.5914     |   4.8 | 11.27
Neigh   | 0.77969    | 0.81396    | 0.8558     |   2.6 |  3.72
Comm    | 0.85139    | 1.0126     | 1.2102     |   9.6 |  4.63
Output  | 11.821     | 12.178     | 17.476     |  39.2 | 55.72
Modify  | 0.078676   | 5.3793     | 5.744      |  59.0 | 24.61
Other   |            | 0.00844    |            |       |  0.04

Nlocal:    62.5 ave 66 max 55 min
Histogram: 1 0 0 1 2 0 0 5 5 2
Nghost:    1860.38 ave 1874 max 1842 min
Histogram: 2 0 1 2 3 1 1 0 2 4
Neighs:    0 ave 0 max 0 min
Histogram: 16 0 0 0 0 0 0 0 0 0
FullNghs:  18812 ave 19810 max 16627 min
Histogram: 1 0 1 0 2 0 0 7 4 1

Total # of neighbors = 300992
Ave neighs/atom = 300.992
Neighbor list builds = 1000
Dangerous builds not checked
Setting up Verlet run ...
  Unit style    : real
  Current step  : 25000
  Time step     : 1
Per MPI rank memory allocation (min/avg/max) = 4.577 | 4.578 | 4.58 Mbytes
Step Temp E_pair E_mol TotEng Press Volume Lx Ly Lz S/CPU 
   25000    294.92867   -10482.792            0   -9604.5446   -8743.2446    784.24199    9.2218212    9.2218212    9.2218212            0 
   25100    311.74507   -10521.741            0   -9593.4176    2409.0094    785.56883     9.227019     9.227019     9.227019    41.738214 
   25200    308.15014   -10503.191            0    -9585.573    5240.5217    786.65735    9.2312788    9.2312788    9.2312788     47.26573 
   25300    300.04533    -10471.76            0   -9578.2758    -8391.416    787.18529    9.2333434    9.2333434    9.2333434    42.162479 
   25400    293.12735   -10444.746            0   -9571.8628    2773.6235    787.26063     9.233638     9.233638     9.233638      48.6724 
   25500    303.93284   -10473.159            0   -9568.0986    284.20324    786.87743    9.2321396    9.2321396    9.2321396    39.174406 
   25600    302.21949    -10464.47            0   -9564.5115    7277.1226    786.33662    9.2300241    9.2300241    9.2300241    40.884497 
   25700    300.81651   -10457.498            0   -9561.7179    9170.4942    785.64157    9.2273038    9.2273038    9.2273038     42.14707 
   25800    296.58782   -10442.651            0   -9559.4627   -2113.2845    785.05122     9.224992     9.224992     9.224992    47.175129 
   25900    301.82605   -10457.692            0   -9558.9059    8911.4069    784.66791    9.2234904    9.2234904    9.2234904    45.162607 
   26000    301.65692   -10456.822            0   -9558.5389      6849.32    784.61733    9.2232921    9.2232921    9.2232921    45.084943 
Loop time of 22.8612 on 16 procs for 1000 steps with 1000 atoms

Performance: 3.779 ns/day, 6.350 hours/ns, 43.742 timesteps/s
94.6% CPU use with 16 MPI tasks x no OpenMP threads

MPI task timing breakdown:
Section |  min time  |  avg time  |  max time  |%varavg| %total
---------------------------------------------------------------
Pair    | 2.2646     | 2.4587     | 2.594      |   5.1 | 10.75
Neigh   | 0.77391    | 0.81915    | 0.8563     |   2.4 |  3.58
Comm    | 0.81471    | 0.98683    | 1.2265     |  10.0 |  4.32
Output  | 12.353     | 12.741     | 18.504     |  41.7 | 55.73
Modify  | 0.083342   | 5.8476     | 6.2354     |  61.5 | 25.58
Other   |            | 0.008344   |            |       |  0.04

Nlocal:    62.5 ave 69 max 58 min
Histogram: 1 0 5 4 2 2 0 1 0 1
Nghost:    1847.31 ave 1859 max 1829 min
Histogram: 1 0 0 4 1 1 2 1 3 3
Neighs:    0 ave 0 max 0 min
Histogram: 16 0 0 0 0 0 0 0 0 0
FullNghs:  18820.2 ave 20858 max 17407 min
Histogram: 1 0 5 2 4 2 0 1 0 1

Total # of neighbors = 301124
Ave neighs/atom = 301.124
Neighbor list builds = 1000
Dangerous builds not checked
Setting up Verlet run ...
  Unit style    : real
  Current step  : 26000
  Time step     : 1
Per MPI rank memory allocation (min/avg/max) = 4.577 | 4.578 | 4.58 Mbytes
Step Temp E_pair E_mol TotEng Press Volume Lx Ly Lz S/CPU 
   26000    301.65692   -10456.822            0   -9558.5389      6849.32    784.61733    9.2232921    9.2232921    9.2232921            0 
   26100    297.78794   -10446.978            0   -9560.2163    2686.1194    784.81482    9.2240659    9.2240659    9.2240659    43.192995 
   26200      298.058   -10449.573            0   -9562.0072    1902.1822    785.40188    9.2263653    9.2263653    9.2263653    49.740585 
   26300    301.55698   -10464.255            0   -9566.2694   -4508.5599    786.00312     9.228719     9.228719     9.228719    50.998101 
   26400    310.03388   -10494.008            0   -9570.7804    2889.6666    786.69848    9.2314397    9.2314397    9.2314397    51.499195 
   26500    306.47834   -10490.667            0   -9578.0264   -12791.917     787.4262    9.2342853    9.2342853    9.2342853    32.519138 
   26600    310.07919   -10508.766            0   -9585.4034   -22320.488    787.84438    9.2359197    9.2359197    9.2359197    32.583528 
   26700    299.09177   -10485.527            0   -9594.8829    10896.386    787.68769    9.2353073    9.2353073    9.2353073     53.05486 
   26800    302.06254    -10502.94            0   -9603.4497   -3081.1449    787.52461      9.23467      9.23467      9.23467    51.178246 
   26900    303.71025   -10516.989            0    -9612.592   -7237.2997    786.97116    9.2325061    9.2325061    9.2325061    34.139363 
   27000    293.63124   -10495.277            0   -9620.8937   -2874.9636    786.09026      9.22906      9.22906      9.22906    43.892601 
Loop time of 23.4187 on 16 procs for 1000 steps with 1000 atoms

Performance: 3.689 ns/day, 6.505 hours/ns, 42.701 timesteps/s
94.6% CPU use with 16 MPI tasks x no OpenMP threads

MPI task timing breakdown:
Section |  min time  |  avg time  |  max time  |%varavg| %total
---------------------------------------------------------------
Pair    | 2.3855     | 2.5085     | 2.6396     |   4.0 | 10.71
Neigh   | 0.80392    | 0.83024    | 0.87061    |   2.0 |  3.55
Comm    | 0.77438    | 0.92588    | 1.0756     |   8.2 |  3.95
Output  | 13.237     | 13.604     | 19.065     |  38.2 | 58.09
Modify  | 0.079273   | 5.5416     | 5.9095     |  59.9 | 23.66
Other   |            | 0.008434   |            |       |  0.04

Nlocal:    62.5 ave 67 max 57 min
Histogram: 1 1 1 0 2 2 4 0 3 2
Nghost:    1851.38 ave 1866 max 1834 min
Histogram: 1 1 2 1 1 2 5 0 0 3
Neighs:    0 ave 0 max 0 min
Histogram: 16 0 0 0 0 0 0 0 0 0
FullNghs:  18776.1 ave 20344 max 17023 min
Histogram: 1 2 0 1 2 5 0 3 1 1

Total # of neighbors = 300418
Ave neighs/atom = 300.418
Neighbor list builds = 1000
Dangerous builds not checked
Setting up Verlet run ...
  Unit style    : real
  Current step  : 27000
  Time step     : 1
Per MPI rank memory allocation (min/avg/max) = 4.577 | 4.578 | 4.58 Mbytes
Step Temp E_pair E_mol TotEng Press Volume Lx Ly Lz S/CPU 
   27000    293.63124   -10495.277            0   -9620.8937   -2874.9636    786.09026      9.22906      9.22906      9.22906            0 
   27100    313.40115   -10560.719            0   -9627.4639    1668.0011    784.71527    9.2236759    9.2236759    9.2236759    36.507625 
   27200    295.15971   -10508.687            0    -9629.752    3963.9654    783.21196    9.2177821    9.2177821    9.2177821    41.713831 
   27300    302.68499   -10533.532            0   -9632.1875   -7540.6401    781.62701      9.21156      9.21156      9.21156    41.153376 
   27400    291.04829   -10499.923            0   -9633.2305    8414.0681    780.13673    9.2057019    9.2057019    9.2057019    36.303157 
   27500    294.31735    -10509.18            0   -9632.7537   -3676.0972    779.19719    9.2020049    9.2020049    9.2020049    47.882848 
   27600    294.45509   -10509.002            0   -9632.1648    2375.0929    778.40963    9.1989036    9.1989036    9.1989036    46.460104 
   27700    306.98226   -10546.225            0   -9632.0847    3002.0812    777.81556    9.1965628    9.1965628    9.1965628    41.095772 
   27800     300.6698   -10527.647            0   -9632.3033    2659.7186     777.6692     9.195986     9.195986     9.195986    44.605406 
   27900    296.17957   -10512.076            0   -9630.1041    17302.027    777.95183    9.1970999    9.1970999    9.1970999     52.49745 
   28000     296.4688   -10511.468            0   -9628.6347     618.3018    779.27057    9.2022938    9.2022938    9.2022938    47.175148 
Loop time of 23.2616 on 16 procs for 1000 steps with 1000 atoms

[...]
 1382700    309.32141   -11281.692            0   -10360.585    29283.323    735.22813    9.0255575    9.0255575    9.0255575    54.614498 
 1382800    301.68435   -11267.811            0   -10369.447    28449.445    736.72323    9.0316713    9.0316713    9.0316713    43.704351 
 1382900    295.26779   -11260.272            0   -10381.015    24197.991    739.61476    9.0434718    9.0434718    9.0434718    39.420596 
 1383000    284.28514   -11238.095            0   -10391.542   -11550.555    743.20959    9.0580998    9.0580998    9.0580998    50.071281 
 1383100    306.78752    -11317.01            0   -10403.449   -19080.419    746.27632    9.0705416    9.0705416    9.0705416    52.178066 
 1383200    287.52262   -11266.439            0   -10410.246   -21016.798    747.86696    9.0769815    9.0769815    9.0769815    40.012997 
 1383300    288.61556   -11275.112            0   -10415.664   -21516.857    748.05595     9.077746     9.077746     9.077746    48.678553 
 1383400    301.52301   -11318.571            0   -10420.687    -10326.26    746.87713    9.0729751    9.0729751    9.0729751    49.295951 
 1383500    308.18252   -11339.399            0   -10421.684   -16062.325    744.37638    9.0628375    9.0628375    9.0628375    50.240299 
 1383600    283.20265    -11263.31            0   -10419.981    558.37229    740.98645    9.0490591    9.0490591    9.0490591    44.051077 
 1383700    296.90954   -11304.574            0   -10420.428    18428.874    737.74651    9.0358509    9.0358509    9.0358509    51.136844 
 1383800    294.34207   -11294.573            0   -10418.073     21505.97    735.55314    9.0268872    9.0268872    9.0268872    50.765397 
 1383900    305.92924   -11327.952            0   -10416.947    22543.048    734.82359    9.0239018    9.0239018    9.0239018    46.228848 
 1384000    302.78682    -11316.91            0   -10415.263     2988.458    735.58511     9.027018     9.027018     9.027018    45.007247 
 1384100    294.22908   -11288.364            0   -10412.201    25183.628    737.68033    9.0355807    9.0355807    9.0355807    51.145271 
 1384200    291.16066   -11276.083            0   -10409.056   -6383.8976    740.87939    9.0486232    9.0486232    9.0486232    61.303678 
 1384300    297.54022   -11291.063            0   -10405.039   -18046.548    744.26533    9.0623868    9.0623868    9.0623868    50.131175 
 1384400    300.83577   -11294.639            0   -10398.801   -12869.895    747.43825    9.0752467    9.0752467    9.0752467    43.491322 
 1384500    308.09292   -11308.617            0   -10391.169   -26310.605    749.63772    9.0841398    9.0841398    9.0841398    47.042955 
 1384600    300.42589   -11278.388            0   -10383.771   -27036.005    750.34807    9.0870083    9.0870083    9.0870083    41.811869 
 1384700    294.65954   -11252.826            0    -10375.38   -19746.556    749.52138    9.0836699    9.0836699    9.0836699     46.50021 
 1384800    303.13335   -11269.229            0    -10366.55   -22246.298    747.37243    9.0749803    9.0749803    9.0749803    45.413531 
 1384900    314.84098   -11297.307            0   -10359.765   -4126.9138    744.33986    9.0626893    9.0626893    9.0626893    52.789959 
 1385000    292.28307   -11219.357            0   -10348.988    8599.8197    740.99117    9.0490783    9.0490783    9.0490783    50.807713 
 1385100    311.88728   -11271.123            0   -10342.376    20085.841    738.16449     9.037557     9.037557     9.037557     43.87816 
 1385200    300.47545   -11230.621            0   -10335.857    16668.951     736.4602    9.0305963    9.0305963    9.0305963    51.230649 
 1385300    321.21134   -11288.119            0   -10331.606    35293.249    736.22873    9.0296501    9.0296501    9.0296501    63.542586 
 1385400    304.94966   -11235.826            0   -10327.738    15052.642    737.63545    9.0353974    9.0353974    9.0353974    44.211598 
 1385500    308.29193   -11244.781            0    -10326.74    13197.536     740.1549    9.0456728    9.0456728    9.0456728    62.073073 
 1385600    301.23228   -11225.847            0   -10328.829   -3098.1794      743.432    9.0590033    9.0590033    9.0590033    48.803498 
 1385700    307.18927   -11245.906            0   -10331.148   -20626.133    746.77226    9.0725505    9.0725505    9.0725505    59.079834 
 1385800    298.14908   -11221.083            0   -10333.246   -29752.019    749.34683    9.0829647    9.0829647    9.0829647    58.969288 
 1385900    300.68511   -11232.996            0   -10337.607   -28673.671    750.57257    9.0879144    9.0879144    9.0879144    44.148233 
 1386000    293.67663   -11218.136            0   -10343.617   -24947.141    750.30035    9.0868156    9.0868156    9.0868156    50.511396 
 1386100    290.04867   -11213.717            0   -10350.001   -15608.721    748.43958    9.0792975    9.0792975    9.0792975     50.89457 
 1386200    296.16004   -11242.557            0   -10360.643   -8997.1546    745.33523    9.0667272    9.0667272    9.0667272    49.755442 
 1386300    294.48442   -11248.794            0    -10371.87   -1489.5512     741.6781    9.0518737    9.0518737    9.0518737    65.739392 
 1386400    300.15396   -11281.122            0   -10387.315    9926.5918    738.12268    9.0373864    9.0373864    9.0373864    51.978817 
 1386500    292.89134   -11276.501            0    -10404.32    27002.942    735.44915    9.0264618    9.0264618    9.0264618    53.486126 
 1386600    290.58451   -11287.452            0   -10422.141    25573.618    734.40969    9.0222073    9.0222073    9.0222073    54.098029 
 1386700    297.32112   -11318.731            0    -10433.36    17765.154    734.87694    9.0241202    9.0241202    9.0241202     59.56705 
 1386800    295.95691   -11321.893            0   -10440.584    17461.643    736.86006    9.0322304    9.0322304    9.0322304     48.09804 
 1386900    299.54013   -11336.075            0   -10444.096    17488.709    740.13066     9.045574     9.045574     9.045574    48.629865 
 1387000    286.05447   -11295.592            0   -10443.771   -18827.512    743.72004    9.0601731    9.0601731    9.0601731     49.61001 
 1387100    295.28931   -11321.399            0   -10442.078   -15462.223    746.58745     9.071802     9.071802     9.071802    45.432439 
 1387200    277.19955   -11261.632            0   -10436.179   -30895.043    748.03077    9.0776442    9.0776442    9.0776442    48.651699 
 1387300    291.74728    -11301.84            0   -10433.066   -23138.604    747.72698    9.0764151    9.0764151    9.0764151    58.572688 
 1387400    289.01055   -11286.501            0   -10425.877   -27805.274    746.05824     9.069658     9.069658     9.069658    50.347463 
 1387500    288.00448   -11275.534            0   -10417.906    3652.8246    743.36497     9.058731     9.058731     9.058731    56.824655 
 1387600    293.32496   -11282.077            0   -10408.606    7357.5395    740.32123    9.0463503    9.0463503    9.0463503    54.373203 
 1387700     297.5643   -11283.627            0   -10397.532      25853.6    737.98837    9.0368382    9.0368382    9.0368382    40.461755 
 1387800     303.3408   -11293.483            0   -10390.186    13452.266    737.19557     9.033601     9.033601     9.033601    50.285356 
 1387900    290.34754   -11245.926            0   -10381.321    9725.0065      737.511    9.0348892    9.0348892    9.0348892    48.610969 
 1388000    303.84476   -11282.026            0   -10377.228    15814.095    738.48561    9.0388673    9.0388673    9.0388673    51.112025 
 1388100    310.20201   -11297.426            0   -10373.698    9759.9356    740.09231    9.0454178    9.0454178    9.0454178    49.222591 
 1388200    305.82052   -11281.706            0   -10371.024    5754.8948    742.14421    9.0537695    9.0537695    9.0537695    49.172487 
 1388300    306.16221   -11279.826            0   -10368.127    8659.0201    744.20609    9.0621464    9.0621464    9.0621464    62.919669 
 1388400    304.40287   -11271.563            0   -10365.103   -18669.449    746.10151    9.0698333    9.0698333    9.0698333    46.045431 
 1388500    303.39821   -11266.024            0   -10362.555   -10109.283    747.21626    9.0743482    9.0743482    9.0743482    49.178506 
 1388600    302.92228   -11262.978            0   -10360.927   -27461.321    747.79706    9.0766987    9.0766987    9.0766987    49.345528 
 1388700    296.62723   -11243.336            0    -10360.03   -15223.962    747.41147    9.0751383    9.0751383    9.0751383    58.075663 
 1388800    315.65951   -11300.177            0   -10360.197   -15523.484    746.06331    9.0696785    9.0696785    9.0696785    51.677485 
 1388900    308.14519   -11276.441            0   -10358.837   -10753.632    743.98677    9.0612561    9.0612561    9.0612561    50.425913 
 1389000    304.03322   -11260.156            0   -10354.797    15066.322    741.77923    9.0522851    9.0522851    9.0522851    49.581094 
 1389100    307.72306   -11269.431            0   -10353.084    12949.767    740.16256     9.045704     9.045704     9.045704    63.169748 
 1389200    303.27929    -11253.37            0   -10350.256    24116.391    739.43249    9.0427289    9.0427289    9.0427289    51.759489 
 1389300    290.71353   -11213.377            0   -10347.682     6529.406    739.86577    9.0444948    9.0444948    9.0444948    54.218866 
 1389400    312.47874   -11278.609            0     -10348.1    15222.484    740.74787    9.0480878    9.0480878    9.0480878    49.942993 
 1389500     303.6372   -11251.571            0   -10347.392    15899.643    741.94299    9.0529512    9.0529512    9.0529512    41.062763 
 1389600     299.9337   -11240.665            0   -10347.513   -10485.597     743.6248    9.0597863    9.0597863    9.0597863    51.074858 
 1389700    303.36075   -11253.792            0   -10350.436   -2950.6451    745.10333    9.0657868    9.0657868    9.0657868    48.873795 
 1389800     303.8468   -11258.438            0   -10353.634   -4248.0231     746.1948    9.0702113    9.0702113    9.0702113       58.934 
 1389900    294.02297    -11232.65            0     -10357.1   -15798.243    746.68942     9.072215     9.072215     9.072215    46.954496 
 1390000    288.93318   -11222.869            0   -10362.476   -14671.101    746.50246    9.0714577    9.0714577    9.0714577    49.301406 
 1390100    301.79146   -11267.742            0   -10369.058    6747.6896    745.44412    9.0671687    9.0671687    9.0671687    47.078358 
 1390200    292.35836    -11244.28            0   -10373.687    -6468.934    743.99424    9.0612864    9.0612864    9.0612864     53.16318 
 1390300    299.06331   -11270.579            0    -10380.02    -4241.267    742.47696    9.0551224    9.0551224    9.0551224    50.682488 
 1390400    294.27576   -11261.532            0   -10385.229    16928.128    741.17197    9.0498142    9.0498142    9.0498142    52.618194 
 1390500    296.50339   -11273.051            0   -10390.115     7156.887    740.43418    9.0468103    9.0468103    9.0468103    45.239766 
 1390600    293.80705   -11269.442            0   -10394.535    6811.6074    740.49135    9.0470432    9.0470432    9.0470432    43.288227 
 1390700    292.45532   -11269.667            0   -10398.785    6138.4156    741.30161    9.0503418    9.0503418    9.0503418    50.870751 
 1390800    306.47824   -11317.297            0   -10404.657   -1306.2471    742.61671    9.0556905    9.0556905    9.0556905    42.180468 
 1390900    287.86501   -11264.325            0   -10407.112    6334.2286    743.81328    9.0605517    9.0605517    9.0605517    46.174686 
 1391000    294.25575    -11287.64            0   -10411.397   -12325.845    744.75764    9.0643845    9.0643845    9.0643845    69.314995 
 1391100    299.13876   -11304.861            0   -10414.077   -7225.4175    744.91126    9.0650078    9.0650078    9.0650078    45.048377 
 1391200    293.82164   -11291.386            0   -10416.435   -9209.9278     744.3394    9.0626875    9.0626875    9.0626875    53.700818 
 1391300     300.1592   -11310.972            0   -10417.149   -5054.2504    743.30415    9.0584839    9.0584839    9.0584839    54.038154 
 1391400    285.30316   -11266.537            0   -10416.953    2638.0673     741.9856    9.0531245    9.0531245    9.0531245    44.428427 
 1391500    299.71813    -11308.32            0   -10415.811    1801.3156    740.64951    9.0476873    9.0476873    9.0476873    52.066302 
 1391600    286.35305   -11265.649            0   -10412.939    5670.1729    739.42158    9.0426844    9.0426844    9.0426844    49.384193 
 1391700    300.08543   -11303.918            0   -10410.315    13421.342    738.58049    9.0392544    9.0392544    9.0392544    48.127371 
 1391800    302.70219   -11308.195            0   -10406.799    5211.7867    738.34226    9.0382824    9.0382824    9.0382824    53.307787 
 1391900    300.06802   -11293.775            0   -10400.224    6958.8193     738.4324    9.0386502    9.0386502    9.0386502    54.995135 
 1392000    299.75886   -11286.087            0   -10393.457    7008.7364    738.97809    9.0408762    9.0408762    9.0408762    49.695732 
 1392100    296.68491   -11269.168            0   -10385.691    16474.531     739.9281    9.0447487    9.0447487    9.0447487    49.060651 
 1392200    304.32769   -11282.401            0   -10376.165   -1676.3605    741.39227    9.0507107    9.0507107    9.0507107    52.012886 
 1392300     312.5216   -11299.274            0   -10368.638    1636.5212    742.83714    9.0565864    9.0565864    9.0565864    49.003769 
 1392400    306.57909   -11273.074            0   -10360.134   -5466.7729    744.13495    9.0618576    9.0618576    9.0618576    51.019872 
 1392500    301.53369   -11251.293            0   -10353.377     2389.563     745.2151    9.0662401    9.0662401    9.0662401    42.805252 
 1392600    305.01771   -11254.922            0   -10346.631   -18680.254    746.13444    9.0699668    9.0699668    9.0699668    65.145516 
 1392700    308.27305   -11260.922            0   -10342.938   -13502.608    746.39214    9.0710109    9.0710109    9.0710109     45.28915 
 1392800      308.753   -11259.255            0   -10339.841   -15442.152    745.94258    9.0691893    9.0691893    9.0691893    50.378654 
 1392900    299.29731   -11229.044            0   -10337.788   -1410.1234    745.01058    9.0654106    9.0654106    9.0654106     49.90966 
 1393000    295.96968   -11218.939            0   -10337.591    9943.9088    743.88152    9.0608288    9.0608288    9.0608288    49.841582 
 1393100    309.87932   -11264.383            0   -10341.616   -15217.538    742.75671    9.0562595    9.0562595    9.0562595    53.657558 
 1393200    310.89507   -11273.245            0   -10347.453   -1472.0113    741.37796    9.0506525    9.0506525    9.0506525    56.284842 
 1393300    302.32796   -11255.631            0    -10355.35    18059.802    740.09667    9.0454356    9.0454356    9.0454356    54.796725 
 1393400    300.93499   -11262.961            0   -10366.828    9921.6748    739.65172    9.0436225    9.0436225    9.0436225    51.323127 
 1393500     299.3234   -11270.829            0   -10379.495    1071.7792    739.92306    9.0447282    9.0447282    9.0447282     49.53547 
 1393600    293.39371   -11267.105            0   -10393.428    20442.207    741.03573    9.0492596    9.0492596    9.0492596    42.344918 
 1393700    287.19528   -11261.438            0   -10406.219   -9064.2269     742.7919    9.0564026    9.0564026    9.0564026    62.045397 
 1393800    289.45738   -11278.236            0   -10416.281     1163.705    744.28777    9.0624779    9.0624779    9.0624779    51.693814 
 1393900    287.22861   -11277.163            0   -10421.846   -15606.998    745.04272     9.065541     9.065541     9.065541    52.279068 
 1394000    297.51772   -11312.464            0   -10426.508     -5383.84    744.97504    9.0652665    9.0652665    9.0652665    54.054532 
 1394100    292.60642   -11297.983            0   -10426.651    1664.7019    744.18825     9.062074     9.062074     9.062074    62.010033 
 1394200    299.27127    -11317.74            0   -10426.561   -18956.527    742.99054    9.0572098    9.0572098    9.0572098     52.38591 
 1394300    287.58482   -11279.637            0   -10423.259   -9266.8945    741.52232    9.0512399    9.0512399    9.0512399    47.160223 
 1394400    288.73649    -11277.52            0   -10417.712    4714.5482    740.27101    9.0461457    9.0461457    9.0461457    50.943862 
 1394500    298.49209   -11300.725            0   -10411.867    8709.2451    739.84069    9.0443926    9.0443926    9.0443926    56.783313 
 1394600    303.24565   -11309.566            0   -10406.552    12940.961    739.96579    9.0449023    9.0449023    9.0449023    50.226217 
 1394700    302.72209    -11300.35            0   -10398.895     3697.788    740.63234    9.0476173    9.0476173    9.0476173    52.380361 
 1394800    304.55972   -11301.194            0   -10394.267     12528.58    741.50434    9.0511667    9.0511667    9.0511667    66.192158 
 1394900    292.96797   -11259.955            0   -10387.546   -11267.028    742.53657    9.0553647    9.0553647    9.0553647    48.163499 
 1395000    297.83934   -11269.145            0   -10382.231   -11841.872    743.66982    9.0599692    9.0599692    9.0599692    56.278582 
 1395100    303.06789   -11278.791            0   -10376.307   -12376.324    744.76208    9.0644026    9.0644026    9.0644026    53.593722 
 1395200    297.58536   -11256.501            0   -10370.343   -11071.597     745.6111    9.0678457    9.0678457    9.0678457     52.17086 
 1395300    291.50821   -11233.691            0   -10365.629   -10671.491    746.01102    9.0694666    9.0694666    9.0694666    49.301072 
 1395400    309.13347   -11283.586            0   -10363.039    -6058.418    745.71868    9.0682818    9.0682818    9.0682818    44.831073 
 1395500    301.01101   -11255.193            0   -10358.834   -2337.3306    744.77167    9.0644415    9.0644415    9.0644415    60.031256 
 1395600    306.23862   -11267.945            0   -10356.019    4397.1367    743.69816    9.0600842    9.0600842    9.0600842     49.14028 
 1395700    293.16583   -11224.868            0    -10351.87    1524.2965     742.6756    9.0559299    9.0559299    9.0559299    44.750831 
 1395800    300.94983   -11247.571            0   -10351.394    2234.4541    741.90111    9.0527808    9.0527808    9.0527808    48.234461 
 1395900    307.60019   -11266.806            0   -10350.826    10583.313    741.32662    9.0504436    9.0504436    9.0504436     55.04182 
 1396000    306.17895   -11262.276            0   -10350.527    16003.678    741.33485    9.0504771    9.0504771    9.0504771    61.629565 
Loop time of 2013.66 on 16 procs for 100000 steps with 1000 atoms

Performance: 4.291 ns/day, 5.593 hours/ns, 49.661 timesteps/s
94.8% CPU use with 16 MPI tasks x no OpenMP threads

MPI task timing breakdown:
Section |  min time  |  avg time  |  max time  |%varavg| %total
---------------------------------------------------------------
Pair    | 233.77     | 251.13     | 271.06     |  78.4 | 12.47
Neigh   | 78.297     | 84.293     | 92.134     |  44.1 |  4.19
Comm    | 76.315     | 104.06     | 127.42     | 160.6 |  5.17
Output  | 1062.1     | 1094       | 1566.6     | 369.0 | 54.33
Modify  | 6.7441     | 479.35     | 511.22     | 557.4 | 23.81
Other   |            | 0.8486     |            |       |  0.04

Nlocal:    62.5 ave 73 max 54 min
Histogram: 2 1 1 4 2 2 0 2 1 1
Nghost:    1935.19 ave 1965 max 1911 min
Histogram: 2 2 1 2 3 1 1 2 1 1
Neighs:    0 ave 0 max 0 min
Histogram: 16 0 0 0 0 0 0 0 0 0
FullNghs:  19894.4 ave 23623 max 17358 min
Histogram: 2 1 5 2 1 1 0 2 1 1

Total # of neighbors = 318310
Ave neighs/atom = 318.31
Neighbor list builds = 100000
Dangerous builds not checked
Total wall time: 8:12:21
