LAMMPS (16 Mar 2018)
Reading data file ...
  orthogonal box = (-4.74243 -4.74243 -4.74243) to (4.74243 4.74243 4.74243)
  2 by 2 by 4 MPI processor grid
  reading atoms ...
  1000 atoms
Reading potential file /home/fs01/ajm529/lammps-16Mar18/potentials/sw_potentials/AG/eps2.23.sw with DATE: 2008-01-29
Neighbor list info ...
  update every 1 steps, delay 0 steps, check no
  max neighbors/atom: 2000, page size: 100000
  master list distance cutoff = 3.836
  ghost atom cutoff = 3.836
  binsize = 1.918, bins = 5 5 5
  1 neighbor lists, perpetual/occasional/extra = 1 0 0
  (1) pair sw, perpetual
      attributes: full, newton on
      pair build: full/bin/atomonly
      stencil: full/bin/3d
      bin: standard
Setting up Verlet run ...
  Unit style    : real
  Current step  : 0
  Time step     : 1
Per MPI rank memory allocation (min/avg/max) = 3.517 | 3.518 | 3.52 Mbytes
Step Temp E_pair E_mol TotEng Press Volume Lx Ly Lz S/CPU 
       0          300   -10093.297            0   -9199.9483   -30695.492    853.28113    9.4848554    9.4848554    9.4848554            0 
     100    325.76363   -10175.931            0   -9205.8629   -51504.213    850.91363    9.4760751    9.4760751    9.4760751    60.328998 
     200    333.97203   -10216.206            0   -9221.6943   -63710.517    844.04414    9.4505058    9.4505058    9.4505058    48.977349 
     300    322.62271   -10205.065            0   -9244.3494   -28169.326     833.2914    9.4102025    9.4102025    9.4102025    77.065244 
     400    330.39407   -10253.791            0   -9269.9342   -4759.3429    821.09989    9.3640847    9.3640847    9.3640847    61.031832 
     500    321.12232   -10245.432            0   -9289.1849    -119.1573    809.72897    9.3206577    9.3206577    9.3206577    70.293244 
     600    326.80382   -10277.999            0   -9304.8334    15692.454    800.37753    9.2846377    9.2846377    9.2846377    57.867033 
     700    326.86321   -10292.367            0   -9319.0244    12745.534    793.58791    9.2583092    9.2583092    9.2583092    63.714522 
     800    343.77841    -10361.57            0   -9337.8564    16248.187    789.40991    9.2420332    9.2420332    9.2420332    62.881224 
     900     329.4035   -10339.807            0   -9358.9001    13535.075    787.18255    9.2333327    9.2333327    9.2333327    82.071405 
    1000    322.03118   -10339.223            0   -9380.2688    15105.952    786.09054    9.2290611    9.2290611    9.2290611    58.127879 
Loop time of 15.8848 on 16 procs for 1000 steps with 1000 atoms

Performance: 5.439 ns/day, 4.412 hours/ns, 62.953 timesteps/s
94.5% CPU use with 16 MPI tasks x no OpenMP threads

MPI task timing breakdown:
Section |  min time  |  avg time  |  max time  |%varavg| %total
---------------------------------------------------------------
Pair    | 1.5464     | 1.6132     | 1.6813     |   2.9 | 10.16
Neigh   | 0.58614    | 0.60084    | 0.63101    |   1.7 |  3.78
Comm    | 0.39346    | 0.47098    | 0.55198    |   7.0 |  2.96
Output  | 8.6051     | 8.8938     | 13.171     |  37.0 | 55.99
Modify  | 0.021006   | 4.2992     | 4.5881     |  53.3 | 27.06
Other   |            | 0.006829   |            |       |  0.04

Nlocal:    62.5 ave 67 max 56 min
Histogram: 1 0 1 2 1 5 1 0 1 4
Nghost:    1849.19 ave 1874 max 1829 min
Histogram: 3 2 1 2 0 2 1 2 2 1
Neighs:    0 ave 0 max 0 min
Histogram: 16 0 0 0 0 0 0 0 0 0
FullNghs:  18753.9 ave 20474 max 16567 min
Histogram: 1 0 0 3 2 5 0 1 2 2

Total # of neighbors = 300062
Ave neighs/atom = 300.062
Neighbor list builds = 1000
Dangerous builds not checked
Setting up Verlet run ...
  Unit style    : real
  Current step  : 1000
  Time step     : 1
Per MPI rank memory allocation (min/avg/max) = 3.519 | 4.36 | 4.579 Mbytes
Step Temp E_pair E_mol TotEng Press Volume Lx Ly Lz S/CPU 
    1000    322.03118   -10339.223            0   -9380.2688    15105.952    786.09054    9.2290611    9.2290611    9.2290611            0 
    1100    322.47733   -10361.997            0   -9401.7146    21466.201    786.13991    9.2292544    9.2292544    9.2292544      73.5389 
    1200      322.111   -10382.811            0   -9423.6191    9488.7812    787.31815    9.2338629    9.2338629    9.2338629    59.587989 
    1300    319.06838   -10395.775            0   -9445.6436     7303.964     789.6114    9.2428194    9.2428194    9.2428194    82.128686 
    1400    321.06483   -10422.065            0   -9465.9891    763.12392    792.64677    9.2546478    9.2546478    9.2546478      51.4371 
    1500    312.62105   -10414.931            0   -9483.9991   -8102.9776    795.84681    9.2670853    9.2670853    9.2670853    69.265325 
    1600    304.82637   -10408.834            0    -9501.113   -14954.788    798.47447    9.2772732    9.2772732    9.2772732    55.027941 
    1700    303.41364   -10420.459            0   -9516.9451   -10340.575    799.84716    9.2825864    9.2825864    9.2825864    66.026396 
    1800     309.4704   -10453.494            0   -9531.9435    -25020.21    800.24948    9.2841426    9.2841426    9.2841426    50.964948 
    1900    301.46251   -10445.067            0   -9547.3634   -10501.884    799.61031    9.2816701    9.2816701    9.2816701    74.737295 
    2000    294.95341   -10437.779            0   -9559.4577   -4824.9784    797.91195    9.2750941    9.2750941    9.2750941    64.630454 
Loop time of 15.8227 on 16 procs for 1000 steps with 1000 atoms

Performance: 5.461 ns/day, 4.395 hours/ns, 63.200 timesteps/s
94.6% CPU use with 16 MPI tasks x no OpenMP threads

MPI task timing breakdown:
Section |  min time  |  avg time  |  max time  |%varavg| %total
---------------------------------------------------------------
Pair    | 1.6316     | 1.6927     | 1.76       |   2.7 | 10.70
Neigh   | 0.58701    | 0.60572    | 0.64775    |   2.0 |  3.83
Comm    | 0.38691    | 0.48845    | 0.56833    |   6.8 |  3.09
Output  | 8.6825     | 8.956      | 13.008     |  35.0 | 56.60
Modify  | 0.020746   | 4.0731     | 4.3466     |  51.8 | 25.74
Other   |            | 0.0068     |            |       |  0.04

Nlocal:    62.5 ave 66 max 59 min
Histogram: 2 1 2 0 3 2 0 4 0 2
Nghost:    1833 ave 1854 max 1812 min
Histogram: 1 3 1 1 3 0 2 2 2 1
Neighs:    0 ave 0 max 0 min
Histogram: 16 0 0 0 0 0 0 0 0 0
FullNghs:  18505.1 ave 19637 max 17483 min
Histogram: 3 0 2 2 1 2 2 2 0 2

Total # of neighbors = 296082
Ave neighs/atom = 296.082
Neighbor list builds = 1000
Dangerous builds not checked
Setting up Verlet run ...
  Unit style    : real
  Current step  : 2000
  Time step     : 1
Per MPI rank memory allocation (min/avg/max) = 3.768 | 4.527 | 4.579 Mbytes
Step Temp E_pair E_mol TotEng Press Volume Lx Ly Lz S/CPU 
    2000    294.95341   -10437.779            0   -9559.4577   -4824.9784    797.91195    9.2750941    9.2750941    9.2750941            0 
    2100    302.12265   -10471.693            0   -9572.0229   -25492.857    795.81584    9.2669651    9.2669651    9.2669651    69.649431 
    2200    304.31784   -10490.086            0    -9583.879   -12984.738    792.87395    9.2555319    9.2555319    9.2555319      76.0414 
    2300    302.11951   -10494.796            0   -9595.1357   -2538.0232    789.40923    9.2420305    9.2420305    9.2420305    49.280466 
    2400    315.35192   -10544.891            0   -9605.8271   -3913.1939    786.03321    9.2288368    9.2288368    9.2288368    68.125812 
    2500    299.50798   -10506.545            0   -9614.6612    13985.117    782.78074    9.2160901    9.2160901    9.2160901      53.9078 
    2600    304.53277    -10530.83            0   -9623.9832    630.26455    780.07296    9.2054511    9.2054511    9.2054511    48.367214 
    2700    293.79057   -10507.342            0   -9632.4837    18705.359    777.88978    9.1968553    9.1968553    9.1968553    53.288784 
    2800    292.17396   -10510.977            0   -9640.9331    24672.879    776.91872    9.1930269    9.1930269    9.1930269    43.425189 
    2900    293.11684   -10520.554            0   -9647.7021    8327.9905    777.20748    9.1941656    9.1941656    9.1941656    51.795105 
    3000    294.72398   -10532.096            0    -9654.458    11067.302    778.19496    9.1980579    9.1980579    9.1980579    53.063782 
Loop time of 18.165 on 16 procs for 1000 steps with 1000 atoms

Performance: 4.756 ns/day, 5.046 hours/ns, 55.051 timesteps/s
94.5% CPU use with 16 MPI tasks x no OpenMP threads

MPI task timing breakdown:
Section |  min time  |  avg time  |  max time  |%varavg| %total
---------------------------------------------------------------
Pair    | 1.6238     | 1.7291     | 1.8074     |   3.3 |  9.52
Neigh   | 0.58306    | 0.60861    | 0.64108    |   1.9 |  3.35
Comm    | 0.38414    | 0.47619    | 0.60759    |   7.8 |  2.62
Output  | 9.6764     | 10.032     | 15.324     |  43.1 | 55.23
Modify  | 0.020393   | 5.312      | 5.6682     |  59.3 | 29.24
Other   |            | 0.006806   |            |       |  0.04

Nlocal:    62.5 ave 68 max 56 min
Histogram: 1 1 0 1 3 4 1 4 0 1
Nghost:    1854.38 ave 1877 max 1838 min
Histogram: 2 4 2 0 1 1 3 1 1 1
Neighs:    0 ave 0 max 0 min
Histogram: 16 0 0 0 0 0 0 0 0 0
FullNghs:  18983.2 ave 20760 max 16895 min
Histogram: 1 0 1 1 3 4 0 5 0 1

Total # of neighbors = 303732
Ave neighs/atom = 303.732
Neighbor list builds = 1000
Dangerous builds not checked
Setting up Verlet run ...
  Unit style    : real
  Current step  : 3000
  Time step     : 1
Per MPI rank memory allocation (min/avg/max) = 3.768 | 4.527 | 4.579 Mbytes
Step Temp E_pair E_mol TotEng Press Volume Lx Ly Lz S/CPU 
    3000    294.72398   -10532.096            0    -9654.458    11067.302    778.19496    9.1980579    9.1980579    9.1980579            0 
    3100    294.84724   -10538.072            0   -9660.0674    5169.5757    779.47785    9.2031096    9.2031096    9.2031096    54.873903 
    3200    295.11488   -10543.261            0   -9664.4594     -6953.91    780.88455    9.2086424    9.2086424    9.2086424    78.127604 
    3300    300.17402   -10561.306            0   -9667.4388    7301.2918    782.25381    9.2140217    9.2140217    9.2140217    58.970106 
    3400    282.64805   -10509.904            0   -9668.2262    6966.7014    783.95596    9.2206999    9.2206999    9.2206999    64.024325 
    3500    291.77087   -10536.676            0   -9667.8324   -9339.6035    785.80055    9.2279261    9.2279261    9.2279261    58.929178 
    3600    297.44196   -10551.255            0   -9665.5233   -265.04627    787.14138    9.2331718    9.2331718    9.2331718    75.826744 
    3700    284.14789   -10505.616            0   -9659.4723   -12528.166    788.00714    9.2365556    9.2365556    9.2365556    61.784455 
    3800    294.08365    -10527.99            0   -9652.2595    -9300.783    788.49401    9.2384575    9.2384575    9.2384575    65.923628 
    3900    288.64487   -10501.705            0   -9642.1696   -11985.388    788.69228    9.2392318    9.2392318    9.2392318    57.775192 
    4000    303.19887   -10533.121            0   -9630.2465     -14102.8    788.09164    9.2368858    9.2368858    9.2368858    77.922863 
Loop time of 15.5254 on 16 procs for 1000 steps with 1000 atoms

Performance: 5.565 ns/day, 4.313 hours/ns, 64.411 timesteps/s
94.6% CPU use with 16 MPI tasks x no OpenMP threads

MPI task timing breakdown:
Section |  min time  |  avg time  |  max time  |%varavg| %total
---------------------------------------------------------------
Pair    | 1.6189     | 1.7248     | 1.8307     |   4.4 | 11.11
Neigh   | 0.58973    | 0.60848    | 0.64609    |   1.8 |  3.92
Comm    | 0.34793    | 0.48951    | 0.58908    |   9.7 |  3.15
Output  | 8.8369     | 9.08       | 12.675     |  30.8 | 58.48
Modify  | 0.020866   | 3.6157     | 3.8589     |  48.8 | 23.29
Other   |            | 0.006795   |            |       |  0.04

Nlocal:    62.5 ave 70 max 53 min
Histogram: 1 0 1 0 5 3 2 2 0 2
Nghost:    1849.69 ave 1862 max 1838 min
Histogram: 3 2 1 2 1 1 0 1 2 3
Neighs:    0 ave 0 max 0 min
Histogram: 16 0 0 0 0 0 0 0 0 0
FullNghs:  18743.4 ave 20961 max 15830 min
Histogram: 1 0 1 0 5 3 2 2 0 2

Total # of neighbors = 299894
Ave neighs/atom = 299.894
Neighbor list builds = 1000
Dangerous builds not checked
Setting up Verlet run ...
  Unit style    : real
  Current step  : 4000
  Time step     : 1
Per MPI rank memory allocation (min/avg/max) = 4.577 | 4.578 | 4.579 Mbytes
Step Temp E_pair E_mol TotEng Press Volume Lx Ly Lz S/CPU 
    4000    303.19887   -10533.121            0   -9630.2465     -14102.8    788.09164    9.2368858    9.2368858    9.2368858            0 
    4100    290.08567   -10481.402            0   -9617.5759     794.4397    787.03895    9.2327712    9.2327712    9.2327712    55.794855 
    4200    293.45328   -10481.061            0   -9607.2074    10086.399    786.05043    9.2289042    9.2289042    9.2289042    82.834364 
    4300    300.96872   -10494.109            0   -9597.8755   -1628.2704    785.62262    9.2272296    9.2272296    9.2272296    52.337422 
    4400    304.01488   -10495.174            0   -9589.8697    17190.332    785.66252    9.2273858    9.2273858    9.2273858    65.521569 
    4500    303.22778   -10487.188            0   -9584.2277    13867.836    786.35711    9.2301042    9.2301042    9.2301042    56.842186 
    4600    300.73633   -10475.209            0   -9579.6675    13275.295    787.86328    9.2359935    9.2359935    9.2359935    75.795068 
    4700    300.94837   -10472.565            0    -9576.392    3135.5002    790.03406    9.2444683    9.2444683    9.2444683    52.105621 
    4800    300.10215   -10468.477            0    -9574.824   -762.63562    792.23142    9.2530311    9.2530311    9.2530311    67.043413 
    4900    306.00921   -10484.817            0   -9573.5735    -2496.646    793.99743    9.2599015    9.2599015    9.2599015     57.62124 
    5000    308.39495   -10491.996            0   -9573.6487   -11017.535    795.13461    9.2643201    9.2643201    9.2643201    65.901735 
Loop time of 16.1787 on 16 procs for 1000 steps with 1000 atoms

Performance: 5.340 ns/day, 4.494 hours/ns, 61.810 timesteps/s
94.6% CPU use with 16 MPI tasks x no OpenMP threads

MPI task timing breakdown:
Section |  min time  |  avg time  |  max time  |%varavg| %total
---------------------------------------------------------------
Pair    | 1.6253     | 1.7069     | 1.7785     |   3.2 | 10.55
Neigh   | 0.58869    | 0.60775    | 0.63876    |   1.8 |  3.76
Comm    | 0.37166    | 0.46764    | 0.56799    |   7.4 |  2.89
Output  | 9.2014     | 9.465      | 13.369     |  32.8 | 58.50
Modify  | 0.020448   | 3.9246     | 4.1883     |  50.9 | 24.26
Other   |            | 0.006762   |            |       |  0.04

Nlocal:    62.5 ave 67 max 59 min
Histogram: 2 0 4 4 0 0 3 1 1 1
Nghost:    1842.75 ave 1857 max 1826 min
Histogram: 1 0 3 2 2 1 1 2 3 1
Neighs:    0 ave 0 max 0 min
Histogram: 16 0 0 0 0 0 0 0 0 0
FullNghs:  18564.9 ave 19923 max 17528 min
Histogram: 2 3 1 3 1 1 2 0 2 1

Total # of neighbors = 297038
Ave neighs/atom = 297.038
Neighbor list builds = 1000
Dangerous builds not checked
Setting up Verlet run ...
  Unit style    : real
  Current step  : 5000
  Time step     : 1
Per MPI rank memory allocation (min/avg/max) = 4.577 | 4.578 | 4.579 Mbytes
Step Temp E_pair E_mol TotEng Press Volume Lx Ly Lz S/CPU 
    5000    308.39495   -10491.996            0   -9573.6487   -11017.535    795.13461    9.2643201    9.2643201    9.2643201            0 
    5100     312.3712   -10504.497            0   -9574.3086   -20361.254    795.39015    9.2653124    9.2653124    9.2653124    55.622555 
    5200    292.23699   -10444.816            0   -9574.5841    -14685.06    794.89815    9.2634016    9.2634016    9.2634016    68.187805 
    5300    311.16907   -10502.414            0   -9575.8056   -9385.1432    793.84646    9.2593145    9.2593145    9.2593145    60.746587 
    5400    295.32025   -10456.126            0   -9576.7127   -12669.429    792.31925     9.253373     9.253373     9.253373    48.194224 
    5500     293.5521   -10453.462            0    -9579.314   -3661.9459    790.17419    9.2450149    9.2450149    9.2450149      63.2986 
    5600    300.39946    -10476.95            0   -9582.4119   -4620.3429    787.57281    9.2348583    9.2348583    9.2348583    72.539324 
    5700    302.39709   -10487.718            0   -9587.2313    12749.117      784.785    9.2239491    9.2239491    9.2239491    70.369986 
    5800    297.91934    -10480.65            0   -9593.4967    14296.366     782.8273    9.2162728    9.2162728    9.2162728    57.583242 
    5900    289.66151   -10464.235            0   -9601.6721    5160.1978    781.70371    9.2118613    9.2118613    9.2118613    64.737482 
    6000    298.33809   -10501.801            0    -9613.401    17481.064    780.84738    9.2084963    9.2084963    9.2084963    46.246811 
Loop time of 16.8086 on 16 procs for 1000 steps with 1000 atoms

Performance: 5.140 ns/day, 4.669 hours/ns, 59.493 timesteps/s
94.5% CPU use with 16 MPI tasks x no OpenMP threads

MPI task timing breakdown:
Section |  min time  |  avg time  |  max time  |%varavg| %total
---------------------------------------------------------------
Pair    | 1.6615     | 1.7079     | 1.7922     |   2.7 | 10.16
Neigh   | 0.59113    | 0.60689    | 0.63751    |   1.6 |  3.61
Comm    | 0.36699    | 0.46094    | 0.52268    |   6.5 |  2.74
Output  | 9.8269     | 10.091     | 14.005     |  31.8 | 60.03
Modify  | 0.020283   | 3.9351     | 4.1993     |  51.0 | 23.41
Other   |            | 0.00675    |            |       |  0.04

Nlocal:    62.5 ave 66 max 58 min
Histogram: 2 1 0 2 0 2 1 5 2 1
Nghost:    1856.12 ave 1877 max 1832 min
Histogram: 1 1 3 0 1 2 4 1 2 1
Neighs:    0 ave 0 max 0 min
Histogram: 16 0 0 0 0 0 0 0 0 0
FullNghs:  18885 ave 20078 max 17362 min
Histogram: 2 1 0 1 2 2 1 4 1 2

Total # of neighbors = 302160
Ave neighs/atom = 302.16
Neighbor list builds = 1000
Dangerous builds not checked
Setting up Verlet run ...
  Unit style    : real
  Current step  : 6000
  Time step     : 1
Per MPI rank memory allocation (min/avg/max) = 4.577 | 4.578 | 4.579 Mbytes
Step Temp E_pair E_mol TotEng Press Volume Lx Ly Lz S/CPU 
    6000    298.33809   -10501.801            0    -9613.401    17481.064    780.84738    9.2084963    9.2084963    9.2084963            0 
    6100    302.98385   -10528.234            0   -9626.0001    760.80165    780.11532    9.2056177    9.2056177    9.2056177    77.933755 
    6200     290.0756    -10501.67            0   -9637.8743    10334.363    779.19961    9.2020144    9.2020144    9.2020144     53.32651 
    6300    290.10031   -10512.306            0   -9648.4369    2350.0223    778.46665    9.1991282    9.1991282    9.1991282    71.680341 
    6400    295.74719   -10537.489            0   -9656.8046   -2549.6135    777.92133    9.1969797    9.1969797    9.1969797    56.906093 
    6500     285.3068   -10509.728            0   -9660.1328   -529.17946    777.63375    9.1958462    9.1958462    9.1958462    60.869514 
    6600    289.47125   -10523.107            0   -9661.1108    7838.1419    777.59842     9.195707     9.195707     9.195707    51.937246 
    6700     289.2527   -10521.887            0   -9660.5423   -22595.314    778.07738    9.1975946    9.1975946    9.1975946    75.937572 
    6800    306.79515   -10573.033            0   -9659.4491    5497.2947    778.39181    9.1988334    9.1988334    9.1988334    57.247889 
    6900     292.0569   -10524.999            0   -9655.3037    7841.9928    778.98313    9.2011621    9.2011621    9.2011621      67.9974 
    7000    297.81448   -10537.068            0   -9650.2276    4763.9098    779.84351    9.2045484    9.2045484    9.2045484    58.025543 
Loop time of 16.1367 on 16 procs for 1000 steps with 1000 atoms

Performance: 5.354 ns/day, 4.482 hours/ns, 61.971 timesteps/s
94.6% CPU use with 16 MPI tasks x no OpenMP threads

MPI task timing breakdown:
Section |  min time  |  avg time  |  max time  |%varavg| %total
---------------------------------------------------------------
Pair    | 1.6802     | 1.7547     | 1.8478     |   3.6 | 10.87
Neigh   | 0.5907     | 0.60923    | 0.64156    |   1.8 |  3.78
Comm    | 0.33363    | 0.45597    | 0.54852    |   8.6 |  2.83
Output  | 8.8302     | 9.1115     | 13.29      |  35.7 | 56.46
Modify  | 0.019793   | 4.1985     | 4.48       |  52.7 | 26.02
Other   |            | 0.006801   |            |       |  0.04

Nlocal:    62.5 ave 68 max 57 min
Histogram: 1 0 3 4 1 2 1 0 2 2
Nghost:    1863.31 ave 1877 max 1841 min
Histogram: 1 0 1 1 2 2 2 2 3 2
Neighs:    0 ave 0 max 0 min
Histogram: 16 0 0 0 0 0 0 0 0 0
FullNghs:  18912 ave 20662 max 17134 min
Histogram: 1 0 2 5 0 3 1 1 2 1

Total # of neighbors = 302592
Ave neighs/atom = 302.592
Neighbor list builds = 1000
Dangerous builds not checked
Setting up Verlet run ...
  Unit style    : real
  Current step  : 7000
  Time step     : 1
Per MPI rank memory allocation (min/avg/max) = 4.577 | 4.578 | 4.579 Mbytes
Step Temp E_pair E_mol TotEng Press Volume Lx Ly Lz S/CPU 
    7000    297.81448   -10537.068            0   -9650.2276    4763.9098    779.84351    9.2045484    9.2045484    9.2045484            0 
    7100    293.68694   -10519.788            0   -9645.2389    11087.061    780.92436    9.2087989    9.2087989    9.2087989    74.493773 
    7200    303.36699   -10541.106            0    -9637.731    935.09967    782.00822    9.2130573    9.2130573    9.2130573    45.546063 
    7300    300.39439   -10526.094            0   -9631.5707   -13367.201    782.90452    9.2165758    9.2165758    9.2165758    69.605217 
    7400    304.39529   -10531.269            0    -9624.832   -617.82688    784.01317    9.2209242    9.2209242    9.2209242    44.114556 
    7500    310.73185     -10543.3            0   -9617.9932   -7331.0263     785.5043    9.2267663    9.2267663    9.2267663    52.828983 
    7600     305.5077   -10522.784            0   -9613.0338   -1415.0491    786.72089    9.2315274    9.2315274    9.2315274    73.956469 
    7700     300.0131   -10501.738            0   -9608.3507   -7247.2972    787.31299    9.2338427    9.2338427    9.2338427    53.175812 
    7800    300.89261   -10500.824            0   -9604.8171   -7075.8641    787.02128    9.2327021    9.2327021    9.2327021    54.832907 
    7900    298.72041   -10491.259            0   -9601.7202   -14004.558    786.23579    9.2296295    9.2296295    9.2296295    66.570778 
    8000    293.83287   -10475.074            0   -9600.0903    3151.7184    785.15594    9.2254022    9.2254022    9.2254022    69.020168 
Loop time of 17.1418 on 16 procs for 1000 steps with 1000 atoms

Performance: 5.040 ns/day, 4.762 hours/ns, 58.337 timesteps/s
94.5% CPU use with 16 MPI tasks x no OpenMP threads

MPI task timing breakdown:
Section |  min time  |  avg time  |  max time  |%varavg| %total
---------------------------------------------------------------
Pair    | 1.6558     | 1.7285     | 1.7977     |   3.2 | 10.08
Neigh   | 0.58662    | 0.60692    | 0.65126    |   2.0 |  3.54
Comm    | 0.36226    | 0.46014    | 0.55181    |   8.1 |  2.68
Output  | 10.081     | 10.349     | 14.319     |  31.9 | 60.37
Modify  | 0.019883   | 3.9909     | 4.2586     |  51.3 | 23.28
Other   |            | 0.006748   |            |       |  0.04

Nlocal:    62.5 ave 68 max 59 min
Histogram: 2 3 3 1 2 1 1 1 0 2
Nghost:    1856.94 ave 1876 max 1839 min
Histogram: 2 0 2 3 2 2 1 1 1 2
Neighs:    0 ave 0 max 0 min
Histogram: 16 0 0 0 0 0 0 0 0 0
FullNghs:  18788.4 ave 20521 max 17790 min
Histogram: 4 3 2 0 2 1 1 1 0 2

Total # of neighbors = 300614
Ave neighs/atom = 300.614
Neighbor list builds = 1000
Dangerous builds not checked
Setting up Verlet run ...
  Unit style    : real
  Current step  : 8000
  Time step     : 1
Per MPI rank memory allocation (min/avg/max) = 4.577 | 4.578 | 4.579 Mbytes
Step Temp E_pair E_mol TotEng Press Volume Lx Ly Lz S/CPU 
    8000    293.83287   -10475.074            0   -9600.0903    3151.7184    785.15594    9.2254022    9.2254022    9.2254022            0 
    8100    297.45608   -10485.284            0   -9599.5106   -103.38718    784.02184    9.2209582    9.2209582    9.2209582    50.954995 
    8200    303.05783   -10501.299            0   -9598.8448   -15232.892    783.03315    9.2170806    9.2170806    9.2170806    78.992441 
    8300    301.17066   -10496.778            0   -9599.9431   -3565.5112    782.02555    9.2131254    9.2131254    9.2131254    56.468277 
    8400    304.27272   -10506.076            0   -9600.0034   -5352.9245    781.28143    9.2102023    9.2102023    9.2102023    66.260728 
    8500    299.56134   -10493.169            0   -9601.1267    12084.728    780.79836    9.2083036    9.2083036    9.2083036    55.949409 
    8600    292.20227    -10472.34            0    -9602.212    19623.772    781.12825    9.2096003    9.2096003    9.2096003    58.915726 
    8700    302.87815   -10506.282            0    -9604.363     22673.18    782.46887     9.214866     9.214866     9.214866    69.171203 
    8800    308.09749   -10524.234            0   -9606.7728    10592.462    784.83953    9.2241627    9.2241627    9.2241627    67.868635 
    8900    302.78588   -10512.531            0   -9610.8865    9620.7713    787.66876    9.2352334    9.2352334    9.2352334    64.158271 
    9000    297.16859    -10497.87            0   -9612.9522    2633.1516    790.64253     9.246841     9.246841     9.246841    52.938797 
Loop time of 16.36 on 16 procs for 1000 steps with 1000 atoms

Performance: 5.281 ns/day, 4.544 hours/ns, 61.125 timesteps/s
94.6% CPU use with 16 MPI tasks x no OpenMP threads

MPI task timing breakdown:
Section |  min time  |  avg time  |  max time  |%varavg| %total
---------------------------------------------------------------
Pair    | 1.6596     | 1.73       | 1.7695     |   2.3 | 10.57
Neigh   | 0.59474    | 0.60794    | 0.63184    |   1.3 |  3.72
Comm    | 0.41514    | 0.46374    | 0.5466     |   5.3 |  2.83
Output  | 9.5257     | 9.7788     | 13.531     |  31.0 | 59.77
Modify  | 0.019912   | 3.7727     | 4.0259     |  49.9 | 23.06
Other   |            | 0.006773   |            |       |  0.04

Nlocal:    62.5 ave 71 max 54 min
Histogram: 1 0 2 0 6 3 1 2 0 1
Nghost:    1857.56 ave 1875 max 1836 min
Histogram: 3 1 2 1 1 0 0 1 2 5
Neighs:    0 ave 0 max 0 min
Histogram: 16 0 0 0 0 0 0 0 0 0
FullNghs:  18690.1 ave 21541 max 15882 min
Histogram: 1 0 1 2 5 3 2 1 0 1

Total # of neighbors = 299042
Ave neighs/atom = 299.042
Neighbor list builds = 1000
Dangerous builds not checked
Setting up Verlet run ...
  Unit style    : real
  Current step  : 9000
  Time step     : 1
Per MPI rank memory allocation (min/avg/max) = 4.577 | 4.578 | 4.579 Mbytes
Step Temp E_pair E_mol TotEng Press Volume Lx Ly Lz S/CPU 
    9000    297.16859    -10497.87            0   -9612.9522    2633.1516    790.64253     9.246841     9.246841     9.246841            0 
    9100    306.41131   -10528.423            0   -9615.9829    -3375.669    793.63903     9.258508     9.258508     9.258508    79.237169 
    9200    289.85397    -10480.43            0   -9617.2945   -26812.714    796.44875    9.2694211    9.2694211    9.2694211    51.151936 
    9300    293.30896   -10491.748            0   -9618.3241   -32051.049    798.39956     9.276983     9.276983     9.276983    74.886114 
    9400     301.1218   -10516.985            0   -9620.2958     -26126.4    798.87824    9.2788367    9.2788367    9.2788367     59.48464 
    9500    308.99539   -10541.275            0   -9621.1397   -17249.691    797.87893    9.2749661    9.2749661    9.2749661    77.952586 
    9600    297.55164   -10506.808            0   -9620.7505   -28276.124    795.82223    9.2669899    9.2669899    9.2669899    51.458327 
    9700    303.99758   -10524.911            0   -9619.6585   -9357.2429    792.56676    9.2543365    9.2543365    9.2543365    76.517723 
    9800    288.97458   -10475.915            0   -9615.3982   -4443.1928    788.42669    9.2381946    9.2381946    9.2381946    53.109856 
    9900    299.43817   -10504.636            0   -9612.9603   -8828.5469    784.00591    9.2208958    9.2208958    9.2208958    78.620086 
   10000    301.10855   -10504.213            0   -9607.5628    18907.446    779.49541    9.2031787    9.2031787    9.2031787    54.024112 
Loop time of 15.7724 on 16 procs for 1000 steps with 1000 atoms

Performance: 5.478 ns/day, 4.381 hours/ns, 63.402 timesteps/s
94.6% CPU use with 16 MPI tasks x no OpenMP threads

MPI task timing breakdown:
Section |  min time  |  avg time  |  max time  |%varavg| %total
---------------------------------------------------------------
Pair    | 1.5926     | 1.6859     | 1.7993     |   4.2 | 10.69
Neigh   | 0.58384    | 0.60371    | 0.63346    |   1.9 |  3.83
Comm    | 0.33101    | 0.46118    | 0.5718     |   9.5 |  2.92
Output  | 8.7767     | 9.043      | 12.995     |  33.9 | 57.33
Modify  | 0.019573   | 3.9719     | 4.2383     |  51.2 | 25.18
Other   |            | 0.006708   |            |       |  0.04

Nlocal:    62.5 ave 70 max 58 min
Histogram: 1 1 4 2 4 3 0 0 0 1
Nghost:    1865.06 ave 1883 max 1850 min
Histogram: 2 0 1 3 4 3 1 1 0 1
Neighs:    0 ave 0 max 0 min
Histogram: 16 0 0 0 0 0 0 0 0 0
FullNghs:  18950.6 ave 21369 max 17468 min
Histogram: 1 0 5 3 5 1 0 0 0 1

Total # of neighbors = 303210
Ave neighs/atom = 303.21
Neighbor list builds = 1000
Dangerous builds not checked
Setting up Verlet run ...
  Unit style    : real
  Current step  : 10000
  Time step     : 1
Per MPI rank memory allocation (min/avg/max) = 4.577 | 4.578 | 4.579 Mbytes
Step Temp E_pair E_mol TotEng Press Volume Lx Ly Lz S/CPU 
   10000    301.10855   -10504.213            0   -9607.5628    18907.446    779.49541    9.2031787    9.2031787    9.2031787            0 
   10100    301.40851   -10496.299            0    -9598.756    14684.327    775.82071     9.188694     9.188694     9.188694    71.638558 
   10200    303.45383   -10491.754            0   -9588.1202    18287.092    773.40599    9.1791509    9.1791509    9.1791509    48.570408 
   10300    301.76136   -10475.306            0   -9576.7121    9195.3204      772.154    9.1741952    9.1741952    9.1741952    78.678451 
   10400    300.95383   -10463.337            0    -9567.148    14867.767    771.83837     9.172945     9.172945     9.172945    54.694517 
   10500    319.15458   -10508.693            0   -9558.3051    17262.983    772.43762    9.1753183    9.1753183    9.1753183    77.094394 
   10600    307.40013    -10466.66            0   -9551.2749    11637.608    773.79369    9.1806845    9.1806845    9.1806845    62.150711 
   10700    310.41554   -10470.441            0   -9546.0766    19931.133    775.91958    9.1890843    9.1890843    9.1890843    70.465762 
   10800    293.24205   -10414.441            0   -9541.2164    4624.2416    779.22697    9.2021221    9.2021221    9.2021221    61.377453 
   10900    313.82726   -10475.408            0   -9540.8838    7763.1516    782.93373    9.2166904    9.2166904    9.2166904    75.076362 
   11000    301.22612   -10437.185            0   -9540.1854   -11506.686    786.53839    9.2308135    9.2308135    9.2308135    56.626079 
Loop time of 15.6066 on 16 procs for 1000 steps with 1000 atoms

Performance: 5.536 ns/day, 4.335 hours/ns, 64.076 timesteps/s
94.7% CPU use with 16 MPI tasks x no OpenMP threads

MPI task timing breakdown:
Section |  min time  |  avg time  |  max time  |%varavg| %total
---------------------------------------------------------------
Pair    | 1.7088     | 1.7703     | 1.8579     |   3.4 | 11.34
Neigh   | 0.58785    | 0.60981    | 0.64128    |   2.0 |  3.91
Comm    | 0.35069    | 0.46093    | 0.53501    |   8.5 |  2.95
Output  | 8.3971     | 8.6711     | 12.739     |  35.7 | 55.56
Modify  | 0.01981    | 4.0876     | 4.3617     |  51.9 | 26.19
Other   |            | 0.006802   |            |       |  0.04

Nlocal:    62.5 ave 67 max 59 min
Histogram: 1 3 4 1 0 1 2 2 0 2
Nghost:    1851.69 ave 1874 max 1829 min
Histogram: 1 1 3 1 2 2 1 2 2 1
Neighs:    0 ave 0 max 0 min
Histogram: 16 0 0 0 0 0 0 0 0 0
FullNghs:  18740.4 ave 20227 max 17658 min
Histogram: 2 3 3 1 0 3 1 1 0 2

Total # of neighbors = 299846
Ave neighs/atom = 299.846
Neighbor list builds = 1000
Dangerous builds not checked
Setting up Verlet run ...
  Unit style    : real
  Current step  : 11000
  Time step     : 1
Per MPI rank memory allocation (min/avg/max) = 4.577 | 4.578 | 4.579 Mbytes
Step Temp E_pair E_mol TotEng Press Volume Lx Ly Lz S/CPU 
   11000    301.22612   -10437.185            0   -9540.1854   -11506.686    786.53839    9.2308135    9.2308135    9.2308135            0 
   11100    307.73805   -10457.529            0   -9541.1373   -11958.367    789.75484    9.2433791    9.2433791    9.2433791    72.706314 
   11200    303.37724   -10444.916            0   -9541.5104   -8084.9254    792.21228    9.2529566    9.2529566    9.2529566    57.858895 
   11300    303.12626   -10448.146            0    -9545.488   -14448.521    793.34416    9.2573612    9.2573612    9.2573612     79.86902 
   11400    313.37552   -10483.436            0   -9550.2571    -22635.07    793.24652    9.2569814    9.2569814    9.2569814    63.429497 
   11500    299.31418   -10448.711            0   -9557.4041   -22917.234    791.91511    9.2517994    9.2517994    9.2517994    77.743856 
   11600    304.00989   -10472.582            0   -9567.2929   -10139.346    789.69619    9.2431503    9.2431503    9.2431503    55.880172 
   11700    294.14205   -10456.129            0   -9580.2238   -1083.1125    787.20085    9.2334043    9.2334043    9.2334043    61.146661 
   11800    291.92017   -10463.132            0   -9593.8439     13711.48    784.37759    9.2223527    9.2223527    9.2223527    67.964523 
   11900    297.86387   -10493.938            0   -9606.9503    3047.3348    781.74165    9.2120103    9.2120103    9.2120103    67.643747 
   12000    297.87322    -10504.94            0   -9617.9242    1521.4505    779.44322    9.2029733    9.2029733    9.2029733    65.086506 
Loop time of 15.1297 on 16 procs for 1000 steps with 1000 atoms

Performance: 5.711 ns/day, 4.203 hours/ns, 66.095 timesteps/s
94.6% CPU use with 16 MPI tasks x no OpenMP threads

MPI task timing breakdown:
Section |  min time  |  avg time  |  max time  |%varavg| %total
---------------------------------------------------------------
Pair    | 1.6324     | 1.7117     | 1.7886     |   3.6 | 11.31
Neigh   | 0.59281    | 0.60593    | 0.63004    |   1.5 |  4.00
Comm    | 0.3559     | 0.45675    | 0.54904    |   8.1 |  3.02
Output  | 8.4161     | 8.6634     | 12.328     |  32.1 | 57.26
Modify  | 0.020012   | 3.6852     | 3.9329     |  49.3 | 24.36
Other   |            | 0.006753   |            |       |  0.04

Nlocal:    62.5 ave 66 max 53 min
Histogram: 1 0 0 0 0 1 4 3 5 2
Nghost:    1857.5 ave 1880 max 1834 min
Histogram: 1 2 1 2 2 2 1 1 2 2
Neighs:    0 ave 0 max 0 min
Histogram: 16 0 0 0 0 0 0 0 0 0
FullNghs:  18939.8 ave 19862 max 15900 min
Histogram: 1 0 0 0 0 1 1 4 6 3

Total # of neighbors = 303036
Ave neighs/atom = 303.036
Neighbor list builds = 1000
Dangerous builds not checked
Setting up Verlet run ...
  Unit style    : real
  Current step  : 12000
  Time step     : 1
Per MPI rank memory allocation (min/avg/max) = 4.577 | 4.578 | 4.579 Mbytes
Step Temp E_pair E_mol TotEng Press Volume Lx Ly Lz S/CPU 
   12000    297.87322    -10504.94            0   -9617.9242    1521.4505    779.44322    9.2029733    9.2029733    9.2029733            0 
   12100    304.24988   -10531.751            0   -9625.7472      7216.59    777.39544    9.1949068    9.1949068    9.1949068    61.476019 
   12200    287.58345   -10486.902            0   -9630.5271    6713.6104    775.92806    9.1891178    9.1891178    9.1891178    69.604635 
   12300    307.14027   -10549.951            0   -9635.3402   -1196.4063    775.08777    9.1857995    9.1857995    9.1857995    54.370576 
   12400    292.98698   -10509.238            0   -9636.7724    22201.048    775.07157    9.1857355    9.1857355    9.1857355    70.768797 
   12500    295.29667   -10516.443            0   -9637.0998    620.82685       776.33    9.1907042    9.1907042    9.1907042    57.976652 
   12600    292.81835   -10509.745            0   -9637.7824    13902.572    777.87272    9.1967881    9.1967881    9.1967881    56.855701 
   12700    297.65656   -10524.664            0   -9638.2933   -2710.9618    779.95589    9.2049906    9.2049906    9.2049906    64.080613 
   12800    285.73836   -10485.633            0   -9634.7526   -23564.814    782.14163    9.2135812    9.2135812    9.2135812    79.467979 
   12900    295.96223   -10514.332            0   -9633.0072   -8471.0789    783.36476    9.2183815    9.2183815    9.2183815    58.047645 
   13000    297.67365   -10517.269            0   -9630.8478   -3300.5686    784.09878    9.2212598    9.2212598    9.2212598      78.0036 
Loop time of 15.6229 on 16 procs for 1000 steps with 1000 atoms

Performance: 5.530 ns/day, 4.340 hours/ns, 64.009 timesteps/s
94.6% CPU use with 16 MPI tasks x no OpenMP threads

MPI task timing breakdown:
Section |  min time  |  avg time  |  max time  |%varavg| %total
---------------------------------------------------------------
Pair    | 1.6853     | 1.7593     | 1.8091     |   2.6 | 11.26
Neigh   | 0.59386    | 0.61076    | 0.63978    |   1.5 |  3.91
Comm    | 0.41193    | 0.46548    | 0.55586    |   6.1 |  2.98
Output  | 8.3731     | 8.6504     | 12.76      |  36.1 | 55.37
Modify  | 0.020686   | 4.1302     | 4.4075     |  52.2 | 26.44
Other   |            | 0.006818   |            |       |  0.04

Nlocal:    62.5 ave 65 max 58 min
Histogram: 1 1 0 0 4 0 0 4 3 3
Nghost:    1849.31 ave 1859 max 1840 min
Histogram: 2 1 2 1 3 1 1 2 2 1
Neighs:    0 ave 0 max 0 min
Histogram: 16 0 0 0 0 0 0 0 0 0
FullNghs:  18823.6 ave 19679 max 17252 min
Histogram: 1 1 0 1 3 0 1 3 3 3

Total # of neighbors = 301178
Ave neighs/atom = 301.178
Neighbor list builds = 1000
Dangerous builds not checked
Setting up Verlet run ...
  Unit style    : real
  Current step  : 13000
  Time step     : 1
Per MPI rank memory allocation (min/avg/max) = 4.577 | 4.578 | 4.579 Mbytes
Step Temp E_pair E_mol TotEng Press Volume Lx Ly Lz S/CPU 
   13000    297.67365   -10517.269            0   -9630.8478   -3300.5686    784.09878    9.2212598    9.2212598    9.2212598            0 
   13100    308.85254   -10547.875            0    -9628.165    66.996195    784.80295    9.2240194    9.2240194    9.2240194     53.19801 
   13200    298.96081   -10516.792            0   -9626.5379    5261.5748    785.69045    9.2274951    9.2274951    9.2274951    67.395209 
   13300    299.71033   -10517.372            0    -9624.886   -7574.4633    786.57958    9.2309746    9.2309746    9.2309746    46.690716 
   13400    309.65542   -10545.531            0   -9623.4303   -7780.9897    787.34861     9.233982     9.233982     9.233982    82.115578 
   13500    297.47946   -10505.946            0   -9620.1028   -12496.904    788.01024    9.2365678    9.2365678    9.2365678    54.746501 
   13600    302.82138   -10520.455            0   -9618.7044   -8284.2074    788.42685    9.2381952    9.2381952    9.2381952    78.202451 
   13700    304.48132   -10520.198            0   -9613.5043   -5429.4772    788.67913    9.2391805    9.2391805    9.2391805    49.197559 
   13800    305.70749   -10515.116            0   -9604.7712   -10350.111    788.32725    9.2378062    9.2378062    9.2378062    59.202434 
   13900    301.84592   -10491.166            0   -9592.3206   -11286.648    787.60846    9.2349977    9.2349977    9.2349977    62.410225 
   14000    298.47955   -10467.798            0   -9578.9767   -10727.615    786.70659    9.2314714    9.2314714    9.2314714    63.724296 
Loop time of 16.7218 on 16 procs for 1000 steps with 1000 atoms

Performance: 5.167 ns/day, 4.645 hours/ns, 59.802 timesteps/s
94.5% CPU use with 16 MPI tasks x no OpenMP threads

MPI task timing breakdown:
Section |  min time  |  avg time  |  max time  |%varavg| %total
---------------------------------------------------------------
Pair    | 1.633      | 1.7145     | 1.773      |   3.3 | 10.25
Neigh   | 0.58587    | 0.6075     | 0.64121    |   1.8 |  3.63
Comm    | 0.37757    | 0.46209    | 0.56509    |   7.9 |  2.76
Output  | 8.9003     | 9.2166     | 13.91      |  39.9 | 55.12
Modify  | 0.02062    | 4.7143     | 5.0306     |  55.8 | 28.19
Other   |            | 0.006764   |            |       |  0.04

Nlocal:    62.5 ave 68 max 56 min
Histogram: 1 1 1 1 2 2 4 2 1 1
Nghost:    1860.44 ave 1883 max 1836 min
Histogram: 2 0 4 1 1 1 1 3 1 2
Neighs:    0 ave 0 max 0 min
Histogram: 16 0 0 0 0 0 0 0 0 0
FullNghs:  18758.4 ave 20575 max 16812 min
Histogram: 1 1 2 1 2 2 3 3 0 1

Total # of neighbors = 300134
Ave neighs/atom = 300.134
Neighbor list builds = 1000
Dangerous builds not checked
Setting up Verlet run ...
  Unit style    : real
  Current step  : 14000
  Time step     : 1
Per MPI rank memory allocation (min/avg/max) = 4.577 | 4.578 | 4.579 Mbytes
Step Temp E_pair E_mol TotEng Press Volume Lx Ly Lz S/CPU 
   14000    298.47955   -10467.798            0   -9578.9767   -10727.615    786.70659    9.2314714    9.2314714    9.2314714            0 
   14100    308.33736   -10482.662            0   -9564.4859   -6428.5158    785.56436    9.2270015    9.2270015    9.2270015    64.308119 
   14200    303.56956   -10455.428            0   -9551.4492    9883.6659    784.27496    9.2219504    9.2219504    9.2219504    61.118258 
   14300    311.70121   -10471.251            0   -9543.0585    1838.1245    782.99386    9.2169264    9.2169264    9.2169264    71.572301 
   14400    316.86811   -10480.309            0     -9536.73    1979.9722    781.85923    9.2124722    9.2124722    9.2124722    53.241487 
   14500     314.1146   -10469.229            0   -9533.8498    21827.773    781.09465    9.2094682    9.2094682    9.2094682    85.529324 
   14600    311.16796    -10460.05            0    -9533.445    2962.2982     780.9912    9.2090616    9.2090616    9.2090616     53.69921 
   14700    300.35655   -10429.221            0   -9534.8108    5861.8743    781.06493    9.2093514    9.2093514    9.2093514    81.891485 
   14800    310.57379   -10464.442            0   -9539.6067    -10348.11    781.30735    9.2103041    9.2103041    9.2103041    56.722041 
   14900    308.84361   -10465.493            0   -9545.8097   -1214.9887    781.48345     9.210996     9.210996     9.210996    74.759145 
   15000    302.01076   -10453.671            0   -9554.3341    1596.4339    781.74358    9.2120179    9.2120179    9.2120179    55.604468 
Loop time of 15.6182 on 16 procs for 1000 steps with 1000 atoms

Performance: 5.532 ns/day, 4.338 hours/ns, 64.028 timesteps/s
94.6% CPU use with 16 MPI tasks x no OpenMP threads

MPI task timing breakdown:
Section |  min time  |  avg time  |  max time  |%varavg| %total
---------------------------------------------------------------
Pair    | 1.6885     | 1.7434     | 1.8235     |   2.7 | 11.16
Neigh   | 0.58661    | 0.61029    | 0.65867    |   2.4 |  3.91
Comm    | 0.36264    | 0.48234    | 0.55454    |   7.6 |  3.09
Output  | 8.2375     | 8.5232     | 12.755     |  37.4 | 54.57
Modify  | 0.02054    | 4.2522     | 4.5381     |  53.0 | 27.23
Other   |            | 0.006808   |            |       |  0.04

Nlocal:    62.5 ave 68 max 56 min
Histogram: 1 1 1 2 2 3 2 0 1 3
Nghost:    1855.94 ave 1866 max 1842 min
Histogram: 2 0 1 0 2 3 2 2 1 3
Neighs:    0 ave 0 max 0 min
Histogram: 16 0 0 0 0 0 0 0 0 0
FullNghs:  18854.4 ave 20621 max 16947 min
Histogram: 1 1 2 2 1 4 1 0 1 3

Total # of neighbors = 301670
Ave neighs/atom = 301.67
Neighbor list builds = 1000
Dangerous builds not checked
Setting up Verlet run ...
  Unit style    : real
  Current step  : 15000
  Time step     : 1
Per MPI rank memory allocation (min/avg/max) = 4.577 | 4.578 | 4.579 Mbytes
Step Temp E_pair E_mol TotEng Press Volume Lx Ly Lz S/CPU 
   15000    302.01076   -10453.671            0   -9554.3341    1596.4339    781.74358    9.2120179    9.2120179    9.2120179            0 
   15100    311.76884   -10492.945            0   -9564.5502    -627.1851    782.34311    9.2143723    9.2143723    9.2143723    59.235024 
   15200    302.73467   -10476.046            0   -9574.5543     11341.46    783.02097    9.2170327    9.2170327    9.2170327    54.021816 
   15300     305.0085   -10492.577            0   -9584.3138    -6808.072    783.78575    9.2200325    9.2200325    9.2200325    57.310582 
   15400    291.37896   -10458.889            0   -9591.2123   -10044.264    784.32241    9.2221364    9.2221364    9.2221364    68.882695 
   15500      302.164   -10497.622            0   -9597.8293   -5648.2659    784.28624    9.2219946    9.2219946    9.2219946    44.551137 
   15600    306.55469   -10515.469            0   -9602.6018   -14040.824    783.63186    9.2194291    9.2194291    9.2194291    64.543875 
   15700    303.14229   -10508.955            0   -9606.2488   -8990.5843    782.21772      9.21388      9.21388      9.21388    55.693502 
   15800    300.38971   -10504.003            0   -9609.4934   -5458.3462    780.88267     9.208635     9.208635     9.208635    76.340346 
   15900    307.77401   -10527.558            0   -9611.0595    6995.7996    779.63794    9.2037396    9.2037396    9.2037396    59.534888 
   16000    308.49173    -10530.66            0   -9612.0246    10033.998     778.7522    9.2002528    9.2002528    9.2002528    54.367769 
Loop time of 17.1544 on 16 procs for 1000 steps with 1000 atoms

Performance: 5.037 ns/day, 4.765 hours/ns, 58.294 timesteps/s
94.5% CPU use with 16 MPI tasks x no OpenMP threads

MPI task timing breakdown:
Section |  min time  |  avg time  |  max time  |%varavg| %total
---------------------------------------------------------------
Pair    | 1.6803     | 1.7415     | 1.8275     |   3.0 | 10.15
Neigh   | 0.58479    | 0.60944    | 0.63682    |   1.7 |  3.55
Comm    | 0.39248    | 0.49164    | 0.56774    |   7.0 |  2.87
Output  | 9.5796     | 9.8767     | 14.284     |  36.2 | 57.58
Modify  | 0.020423   | 4.4283     | 4.7255     |  54.1 | 25.81
Other   |            | 0.006824   |            |       |  0.04

Nlocal:    62.5 ave 68 max 57 min
Histogram: 3 1 2 0 1 2 1 3 1 2
Nghost:    1868.19 ave 1895 max 1834 min
Histogram: 1 1 1 1 2 3 2 2 1 2
Neighs:    0 ave 0 max 0 min
Histogram: 16 0 0 0 0 0 0 0 0 0
FullNghs:  18931.5 ave 20624 max 17353 min
Histogram: 3 2 1 0 1 3 2 2 0 2

Total # of neighbors = 302904
Ave neighs/atom = 302.904
Neighbor list builds = 1000
Dangerous builds not checked
Setting up Verlet run ...
  Unit style    : real
  Current step  : 16000
  Time step     : 1
Per MPI rank memory allocation (min/avg/max) = 4.577 | 4.578 | 4.579 Mbytes
Step Temp E_pair E_mol TotEng Press Volume Lx Ly Lz S/CPU 
   16000    308.49173    -10530.66            0   -9612.0246    10033.998     778.7522    9.2002528    9.2002528    9.2002528            0 
   16100    293.84462   -10487.049            0   -9612.0304    1145.7507    778.32795    9.1985818    9.1985818    9.1985818     60.39463 
   16200    304.92707   -10520.991            0   -9612.9705    6993.5376    778.20493    9.1980971    9.1980971    9.1980971    53.907808 
   16300    304.80147   -10520.338            0   -9612.6913    18446.992    778.66414     9.199906     9.199906     9.199906    68.840783 
   16400    310.00353   -10538.681            0   -9615.5438    12779.263    779.65951    9.2038244    9.2038244    9.2038244     58.19337 
   16500    303.55942   -10521.679            0   -9617.7308   -3697.6925    781.22419    9.2099773    9.2099773    9.2099773    50.431139 
   16600    308.07353   -10538.277            0    -9620.887    606.21323    782.77968    9.2160859    9.2160859    9.2160859    73.660164 
   16700    297.74153   -10509.104            0   -9622.4808    2103.1149    784.60005    9.2232245    9.2232245    9.2232245    53.341449 
   16800     299.8157   -10517.191            0   -9624.3912   -7130.1462     786.5601    9.2308984    9.2308984    9.2308984    36.338193 
   16900     296.3808   -10507.593            0   -9625.0216   -9582.4629    788.11224    9.2369663    9.2369663    9.2369663    63.926904 
   17000    289.54264   -10486.742            0   -9624.5333    -7909.108    788.85828      9.23988      9.23988      9.23988    75.260124 
Loop time of 17.542 on 16 procs for 1000 steps with 1000 atoms

Performance: 4.925 ns/day, 4.873 hours/ns, 57.006 timesteps/s
94.5% CPU use with 16 MPI tasks x no OpenMP threads

MPI task timing breakdown:
Section |  min time  |  avg time  |  max time  |%varavg| %total
---------------------------------------------------------------
Pair    | 1.6645     | 1.7384     | 1.8142     |   3.9 |  9.91
Neigh   | 0.59315    | 0.60978    | 0.63269    |   1.3 |  3.48
Comm    | 0.41197    | 0.49123    | 0.56993    |   7.8 |  2.80
Output  | 9.8896     | 10.192     | 14.675     |  36.3 | 58.10
Modify  | 0.020219   | 4.5037     | 4.8063     |  54.5 | 25.67
Other   |            | 0.006831   |            |       |  0.04

Nlocal:    62.5 ave 68 max 59 min
Histogram: 2 3 1 3 3 0 1 1 1 1
Nghost:    1846.06 ave 1865 max 1823 min
Histogram: 1 2 1 0 1 4 2 3 1 1
Neighs:    0 ave 0 max 0 min
Histogram: 16 0 0 0 0 0 0 0 0 0
FullNghs:  18706 ave 20341 max 17628 min
Histogram: 3 2 3 1 2 1 1 1 1 1

Total # of neighbors = 299296
Ave neighs/atom = 299.296
Neighbor list builds = 1000
Dangerous builds not checked
Setting up Verlet run ...
  Unit style    : real
  Current step  : 17000
  Time step     : 1
Per MPI rank memory allocation (min/avg/max) = 4.577 | 4.578 | 4.579 Mbytes
Step Temp E_pair E_mol TotEng Press Volume Lx Ly Lz S/CPU 
   17000    289.54264   -10486.742            0   -9624.5333    -7909.108    788.85828      9.23988      9.23988      9.23988            0 
   17100    301.79451    -10523.65            0   -9624.9578   -10066.412    788.76234    9.2395054    9.2395054    9.2395054    57.726954 
   17200    299.85922   -10515.515            0   -9622.5857   -13877.179    787.59296    9.2349371    9.2349371    9.2349371    58.372184 
   17300      301.174   -10514.675            0   -9617.8304   -11609.904    785.33109    9.2260881    9.2260881    9.2260881    68.343012 
   17400     293.8448   -10482.713            0   -9607.6932    -7961.748    782.42628    9.2146988    9.2146988    9.2146988    53.061974 
   17500    312.54532   -10522.459            0    -9591.752    10459.552    779.96064    9.2050092    9.2050092    9.2050092    69.601112 
   17600    306.64125   -10485.305            0   -9572.1799    17196.027    778.58916    9.1996107    9.1996107    9.1996107    53.477651 
   17700    312.98423   -10488.231            0   -9556.2173    12508.924    778.50381    9.1992746    9.1992746    9.1992746    61.974617 
   17800    316.47004   -10488.395            0   -9546.0016    9127.5278    779.51139    9.2032416    9.2032416    9.2032416    44.163739 
   17900    313.72138   -10475.657            0   -9541.4483   -814.34531     781.1384    9.2096402    9.2096402    9.2096402    58.550544 
   18000    318.33354    -10487.83            0   -9539.8866   -6643.5594    782.85803    9.2163934    9.2163934    9.2163934    59.929655 
Loop time of 17.3544 on 16 procs for 1000 steps with 1000 atoms

Performance: 4.979 ns/day, 4.821 hours/ns, 57.622 timesteps/s
94.5% CPU use with 16 MPI tasks x no OpenMP threads

MPI task timing breakdown:
Section |  min time  |  avg time  |  max time  |%varavg| %total
---------------------------------------------------------------
Pair    | 1.6903     | 1.7367     | 1.8106     |   2.3 | 10.01
Neigh   | 0.59345    | 0.60981    | 0.64013    |   1.8 |  3.51
Comm    | 0.37911    | 0.46915    | 0.53003    |   5.9 |  2.70
Output  | 10.071     | 10.352     | 14.511     |  33.4 | 59.65
Modify  | 0.02041    | 4.1801     | 4.4607     |  52.5 | 24.09
Other   |            | 0.006796   |            |       |  0.04

Nlocal:    62.5 ave 68 max 58 min
Histogram: 1 1 0 3 5 3 0 0 1 2
Nghost:    1871.31 ave 1891 max 1841 min
Histogram: 1 1 1 2 1 1 0 4 1 4
Neighs:    0 ave 0 max 0 min
Histogram: 16 0 0 0 0 0 0 0 0 0
FullNghs:  18850.1 ave 20662 max 17370 min
Histogram: 2 0 0 7 2 2 0 1 1 1

Total # of neighbors = 301602
Ave neighs/atom = 301.602
Neighbor list builds = 1000
Dangerous builds not checked
Setting up Verlet run ...
  Unit style    : real
  Current step  : 18000
  Time step     : 1
Per MPI rank memory allocation (min/avg/max) = 4.577 | 4.578 | 4.579 Mbytes
Step Temp E_pair E_mol TotEng Press Volume Lx Ly Lz S/CPU 
   18000    318.33354    -10487.83            0   -9539.8866   -6643.5594    782.85803    9.2163934    9.2163934    9.2163934            0 
   18100    303.73315   -10444.979            0   -9540.5132   -3398.9951    784.14336    9.2214346    9.2214346    9.2214346    81.078693 
   18200    303.98618    -10448.92            0   -9543.7012   -1844.8428    785.30673    9.2259927    9.2259927    9.2259927    53.760802 
   18300    311.68891   -10479.161            0   -9551.0043   -7149.7145    786.53326    9.2307934    9.2307934    9.2307934    72.175637 
   18400    306.22482   -10470.562            0   -9558.6768    8179.7449    787.79459    9.2357251    9.2357251    9.2357251    57.212084 
   18500    308.42064   -10486.229            0    -9567.805    765.97994    789.26533     9.241469     9.241469     9.241469    77.474549 
   18600    299.08816   -10467.666            0   -9577.0326   -12480.153    790.52909    9.2463987    9.2463987    9.2463987    51.493919 
   18700    295.01573   -10464.722            0   -9586.2154   -16786.278    791.15858    9.2488524    9.2488524    9.2488524    58.904282 
   18800    301.76573   -10492.923            0   -9594.3162   -15911.591    790.63633    9.2468168    9.2468168    9.2468168    74.715939 
   18900    296.62797   -10484.794            0   -9601.4862    323.09752    789.02706    9.2405389    9.2405389    9.2405389    59.393243 
   19000    294.82966   -10484.073            0   -9606.1211   -14546.814    786.67401     9.231344     9.231344     9.231344    71.922154 
Loop time of 15.5698 on 16 procs for 1000 steps with 1000 atoms

Performance: 5.549 ns/day, 4.325 hours/ns, 64.227 timesteps/s
94.6% CPU use with 16 MPI tasks x no OpenMP threads

MPI task timing breakdown:
Section |  min time  |  avg time  |  max time  |%varavg| %total
---------------------------------------------------------------
Pair    | 1.6157     | 1.7119     | 1.7953     |   3.4 | 10.99
Neigh   | 0.59265    | 0.60739    | 0.63416    |   1.5 |  3.90
Comm    | 0.3677     | 0.46198    | 0.55079    |   7.1 |  2.97
Output  | 8.5128     | 8.7816     | 12.761     |  34.7 | 56.40
Modify  | 0.020386   | 4.0001     | 4.2689     |  51.4 | 25.69
Other   |            | 0.006788   |            |       |  0.04

Nlocal:    62.5 ave 68 max 57 min
Histogram: 2 2 3 1 0 1 0 2 2 3
Nghost:    1854.38 ave 1872 max 1844 min
Histogram: 2 5 1 1 1 2 2 1 0 1
Neighs:    0 ave 0 max 0 min
Histogram: 16 0 0 0 0 0 0 0 0 0
FullNghs:  18744.8 ave 20396 max 17065 min
Histogram: 2 1 4 1 0 1 1 2 2 2

Total # of neighbors = 299916
Ave neighs/atom = 299.916
Neighbor list builds = 1000
Dangerous builds not checked
Setting up Verlet run ...
  Unit style    : real
  Current step  : 19000
  Time step     : 1
Per MPI rank memory allocation (min/avg/max) = 4.577 | 4.578 | 4.579 Mbytes
Step Temp E_pair E_mol TotEng Press Volume Lx Ly Lz S/CPU 
   19000    294.82966   -10484.073            0   -9606.1211   -14546.814    786.67401     9.231344     9.231344     9.231344            0 
   19100    297.82137    -10498.26            0   -9611.3989   -8865.2878    783.72207    9.2197828    9.2197828    9.2197828    63.644573 
   19200    301.27096   -10510.823            0   -9613.6894   -661.72722    780.84612    9.2084914    9.2084914    9.2084914    69.358023 
   19300    309.09311   -10537.086            0   -9616.6595    15184.584    778.33297    9.1986016    9.1986016    9.1986016    60.437527 
   19400    296.32795   -10499.559            0   -9617.1446    11016.528    776.62533    9.1918695    9.1918695    9.1918695    63.329618 
   19500    299.70097     -10510.1            0   -9617.6414    30904.326    775.90097    9.1890109    9.1890109    9.1890109     53.91868 
   19600    292.26572   -10489.097            0   -9618.7792    4607.3918    776.40029    9.1909816    9.1909816    9.1909816    71.916117 
   19700    291.45334   -10487.311            0   -9619.4125    12151.996    777.93284     9.197025     9.197025     9.197025    45.948446 
   19800    299.03896   -10511.526            0   -9621.0389     5748.078    780.49305    9.2071032    9.2071032    9.2071032    59.798956 
   19900     289.7205   -10485.025            0   -9622.2871    10921.333    783.40448    9.2185373    9.2185373    9.2185373    56.765183 
   20000    301.52413   -10522.878            0   -9624.9904    5240.5959    786.49835    9.2306568    9.2306568    9.2306568    56.118941 
Loop time of 16.884 on 16 procs for 1000 steps with 1000 atoms

Performance: 5.117 ns/day, 4.690 hours/ns, 59.228 timesteps/s
94.5% CPU use with 16 MPI tasks x no OpenMP threads

MPI task timing breakdown:
Section |  min time  |  avg time  |  max time  |%varavg| %total
---------------------------------------------------------------
Pair    | 1.6408     | 1.7488     | 1.8364     |   3.8 | 10.36
Neigh   | 0.58057    | 0.61068    | 0.65549    |   2.3 |  3.62
Comm    | 0.39051    | 0.50891    | 0.64709    |   9.2 |  3.01
Output  | 9.5803     | 9.8588     | 13.988     |  34.0 | 58.39
Modify  | 0.020346   | 4.15       | 4.4286     |  52.3 | 24.58
Other   |            | 0.006792   |            |       |  0.04

Nlocal:    62.5 ave 66 max 59 min
Histogram: 1 2 2 0 3 2 0 4 1 1
Nghost:    1854.56 ave 1867 max 1843 min
Histogram: 3 1 0 4 3 0 0 0 1 4
Neighs:    0 ave 0 max 0 min
Histogram: 16 0 0 0 0 0 0 0 0 0
FullNghs:  18772.5 ave 19971 max 17625 min
Histogram: 2 1 0 2 3 1 3 3 0 1

Total # of neighbors = 300360
Ave neighs/atom = 300.36
Neighbor list builds = 1000
Dangerous builds not checked
Setting up Verlet run ...
  Unit style    : real
  Current step  : 20000
  Time step     : 1
Per MPI rank memory allocation (min/avg/max) = 4.577 | 4.578 | 4.579 Mbytes
Step Temp E_pair E_mol TotEng Press Volume Lx Ly Lz S/CPU 
   20000    301.52413   -10522.878            0   -9624.9904    5240.5959    786.49835    9.2306568    9.2306568    9.2306568            0 
   20100    301.44029   -10522.213            0   -9624.5752    1226.2858    789.16599    9.2410812    9.2410812    9.2410812    54.317071 
   20200    287.58861   -10480.982            0   -9624.5917   -15763.131    791.10922      9.24866      9.24866      9.24866     49.80264 
   20300     297.9387   -10511.941            0   -9624.7301   -7160.7099    792.12505    9.2526169    9.2526169    9.2526169    76.089521 
   20400    306.97905   -10537.033            0   -9622.9021   -5522.5828    792.64329    9.2546343    9.2546343    9.2546343    53.945622 
   20500    299.66241   -10510.307            0   -9617.9636   -6069.6014    792.58508    9.2544077    9.2544077    9.2544077    54.323871 
   20600     301.4719   -10511.337            0   -9613.6055   -14465.296    791.93256    9.2518674    9.2518674    9.2518674    67.845053 
   20700     291.3198   -10474.853            0   -9607.3525   -10854.061    790.26975    9.2453875    9.2453875    9.2453875    41.711591 
   20800     306.1536   -10512.012            0   -9600.3392    1744.4012    788.09272      9.23689      9.23689      9.23689    64.998687 
   20900    303.59252    -10496.64            0   -9592.5934   -6684.5618     785.7072    9.2275607    9.2275607    9.2275607    66.569807 
   21000    294.63985   -10461.261            0    -9583.874    7765.4796    783.04867    9.2171414    9.2171414    9.2171414    57.903853 
Loop time of 17.4968 on 16 procs for 1000 steps with 1000 atoms

Performance: 4.938 ns/day, 4.860 hours/ns, 57.153 timesteps/s
94.5% CPU use with 16 MPI tasks x no OpenMP threads

MPI task timing breakdown:
Section |  min time  |  avg time  |  max time  |%varavg| %total
---------------------------------------------------------------
Pair    | 1.6187     | 1.7007     | 1.7765     |   3.0 |  9.72
Neigh   | 0.58713    | 0.60651    | 0.63719    |   1.6 |  3.47
Comm    | 0.39424    | 0.48204    | 0.5833     |   6.6 |  2.76
Output  | 10.281     | 10.559     | 14.68      |  32.7 | 60.35
Modify  | 0.020673   | 4.1419     | 4.4201     |  52.3 | 23.67
Other   |            | 0.006745   |            |       |  0.04

Nlocal:    62.5 ave 68 max 54 min
Histogram: 1 0 1 1 2 3 2 2 1 3
Nghost:    1857.25 ave 1891 max 1826 min
Histogram: 1 3 2 2 0 1 0 5 1 1
Neighs:    0 ave 0 max 0 min
Histogram: 16 0 0 0 0 0 0 0 0 0
FullNghs:  18865.2 ave 20919 max 16001 min
Histogram: 1 0 1 1 2 4 2 1 2 2

Total # of neighbors = 301844
Ave neighs/atom = 301.844
Neighbor list builds = 1000
Dangerous builds not checked
Setting up Verlet run ...
  Unit style    : real
  Current step  : 21000
  Time step     : 1
Per MPI rank memory allocation (min/avg/max) = 4.577 | 4.578 | 4.579 Mbytes
Step Temp E_pair E_mol TotEng Press Volume Lx Ly Lz S/CPU 
   21000    294.63985   -10461.261            0    -9583.874    7765.4796    783.04867    9.2171414    9.2171414    9.2171414            0 
   21100    311.73653   -10504.551            0   -9576.2531    22160.494    780.88494     9.208644     9.208644     9.208644    83.021475 
   21200    312.22036   -10498.379            0   -9568.6396     12488.72    779.84069    9.2045374    9.2045374    9.2045374    49.422266 
   21300    306.39288   -10476.378            0   -9563.9919    23902.625    779.78758    9.2043284    9.2043284    9.2043284    79.012645 
   21400    316.46517   -10502.407            0   -9560.0273    15005.516    780.86354    9.2085598    9.2085598    9.2085598    60.205741 
   21500    298.61881   -10445.457            0   -9556.2207    10134.572    782.79557    9.2161483    9.2161483    9.2161483    84.286164 
   21600    304.17863   -10460.743            0   -9554.9514    9788.2214    785.35397    9.2261777    9.2261777    9.2261777    51.901118 
   21700    311.10326   -10481.653            0   -9555.2404    18000.648    788.67611    9.2391687    9.2391687    9.2391687    62.228896 
   21800    300.58987   -10447.633            0   -9552.5279   -1426.8486    792.75679     9.255076     9.255076     9.255076    57.321642 
   21900    312.76243   -10483.371            0   -9552.0181   -1332.0469    797.08388    9.2718844    9.2718844    9.2718844    56.484338 
   22000    302.11051   -10450.234            0   -9550.6006   -9565.3631    800.68707    9.2858345    9.2858345    9.2858345    83.259913 
Loop time of 15.5906 on 16 procs for 1000 steps with 1000 atoms

Performance: 5.542 ns/day, 4.331 hours/ns, 64.141 timesteps/s
94.6% CPU use with 16 MPI tasks x no OpenMP threads

MPI task timing breakdown:
Section |  min time  |  avg time  |  max time  |%varavg| %total
---------------------------------------------------------------
Pair    | 1.6288     | 1.7205     | 1.7819     |   3.0 | 11.04
Neigh   | 0.58434    | 0.608      | 0.64117    |   2.0 |  3.90
Comm    | 0.39993    | 0.48203    | 0.59732    |   7.4 |  3.09
Output  | 8.5453     | 8.8114     | 12.753     |  34.3 | 56.52
Modify  | 0.020266   | 3.9619     | 4.2283     |  51.1 | 25.41
Other   |            | 0.00676    |            |       |  0.04

Nlocal:    62.5 ave 66 max 59 min
Histogram: 1 2 2 0 3 2 0 4 1 1
Nghost:    1830.19 ave 1844 max 1813 min
Histogram: 1 1 1 2 0 4 2 2 0 3
Neighs:    0 ave 0 max 0 min
Histogram: 16 0 0 0 0 0 0 0 0 0
FullNghs:  18424.1 ave 19540 max 17252 min
Histogram: 1 1 2 1 4 1 3 1 1 1

Total # of neighbors = 294786
Ave neighs/atom = 294.786
Neighbor list builds = 1000
Dangerous builds not checked
Setting up Verlet run ...
  Unit style    : real
  Current step  : 22000
  Time step     : 1
Per MPI rank memory allocation (min/avg/max) = 4.577 | 4.578 | 4.579 Mbytes
Step Temp E_pair E_mol TotEng Press Volume Lx Ly Lz S/CPU 
   22000    302.11051   -10450.234            0   -9550.6006   -9565.3631    800.68707    9.2858345    9.2858345    9.2858345            0 
   22100    302.22669   -10449.014            0   -9549.0343   -12712.821    802.84686    9.2941762    9.2941762    9.2941762    64.775425 
   22200    313.07892   -10481.945            0   -9549.6498   -19529.178    803.49284    9.2966683    9.2966683    9.2966683    78.691874 
   22300    302.31604   -10450.943            0   -9550.6977   -5610.2987    803.06515    9.2950185    9.2950185    9.2950185    54.560075 
   22400     308.6554   -10474.019            0   -9554.8964   -7911.9578    801.75395     9.289957     9.289957     9.289957    63.253243 
   22500    305.72327   -10469.501            0   -9559.1092    9973.4513    799.90438    9.2828078    9.2828078    9.2828078    64.934476 
   22600    310.61042   -10491.645            0   -9566.7003   -7446.1907    797.91437    9.2751034    9.2751034    9.2751034    53.291825 
   22700    302.43706   -10478.348            0   -9577.7425   -1737.5448    795.36014    9.2651959    9.2651959    9.2651959    68.452301 
   22800    305.18836   -10499.387            0   -9590.5882    1880.8321    792.37613    9.2535944    9.2535944    9.2535944    56.589992 
   22900    296.83846   -10487.481            0   -9603.5471     993.8388    789.40897    9.2420295    9.2420295    9.2420295    58.821589 
   23000    298.90515   -10504.458            0   -9614.3691    2231.1711    786.83789     9.231985     9.231985     9.231985     72.47343 
Loop time of 15.9527 on 16 procs for 1000 steps with 1000 atoms

Performance: 5.416 ns/day, 4.431 hours/ns, 62.685 timesteps/s
94.6% CPU use with 16 MPI tasks x no OpenMP threads

MPI task timing breakdown:
Section |  min time  |  avg time  |  max time  |%varavg| %total
---------------------------------------------------------------
Pair    | 1.5884     | 1.6614     | 1.7393     |   3.8 | 10.41
Neigh   | 0.58654    | 0.60344    | 0.63743    |   1.9 |  3.78
Comm    | 0.37683    | 0.47337    | 0.56342    |   8.3 |  2.97
Output  | 8.9399     | 9.2085     | 13.187     |  33.9 | 57.72
Modify  | 0.020229   | 3.9993     | 4.268      |  51.4 | 25.07
Other   |            | 0.006707   |            |       |  0.04

Nlocal:    62.5 ave 70 max 57 min
Histogram: 3 1 2 1 3 2 2 0 0 2
Nghost:    1863.12 ave 1880 max 1849 min
Histogram: 1 2 1 3 2 2 4 0 0 1
Neighs:    0 ave 0 max 0 min
Histogram: 16 0 0 0 0 0 0 0 0 0
FullNghs:  18774.6 ave 21031 max 17112 min
Histogram: 3 1 2 1 3 2 2 0 0 2

Total # of neighbors = 300394
Ave neighs/atom = 300.394
Neighbor list builds = 1000
Dangerous builds not checked
Setting up Verlet run ...
  Unit style    : real
  Current step  : 23000
  Time step     : 1
Per MPI rank memory allocation (min/avg/max) = 4.577 | 4.578 | 4.579 Mbytes
Step Temp E_pair E_mol TotEng Press Volume Lx Ly Lz S/CPU 
   23000    298.90515   -10504.458            0   -9614.3691    2231.1711    786.83789     9.231985     9.231985     9.231985            0 
   23100    290.33513   -10488.079            0    -9623.511     713.3538    784.56165     9.223074     9.223074     9.223074    60.042632 
   23200    293.36613   -10503.402            0   -9629.8078    16033.758    782.67564    9.2156776    9.2156776    9.2156776    55.718749 
   23300    297.43558   -10520.859            0   -9635.1462    16439.457    781.47238    9.2109525    9.2109525    9.2109525    47.427325 
   23400      301.862   -10537.021            0   -9638.1271   -5603.6282    781.27292    9.2101688    9.2101688    9.2101688    70.158358 
   23500    296.05755   -10522.322            0   -9640.7127   -6981.6813    781.38645    9.2106149    9.2106149    9.2106149    50.299739 
   23600    297.20092   -10528.098            0   -9643.0848    1914.9068    781.63918    9.2116078    9.2116078    9.2116078    58.454691 
   23700    296.60489   -10528.305            0   -9645.0668     3483.918    781.90654     9.212658     9.212658     9.212658    61.386623 
   23800    301.92587   -10545.497            0   -9646.4131   -11617.254    782.15389    9.2136293    9.2136293    9.2136293    58.564459 
   23900    302.59218   -10547.675            0   -9646.6067    1494.4243    782.16657    9.2136791    9.2136791    9.2136791    57.810699 
   24000    287.85934   -10501.716            0   -9644.5205    13215.249    782.07529    9.2133207    9.2133207    9.2133207    70.952781 
Loop time of 17.1686 on 16 procs for 1000 steps with 1000 atoms

Performance: 5.032 ns/day, 4.769 hours/ns, 58.246 timesteps/s
94.5% CPU use with 16 MPI tasks x no OpenMP threads

MPI task timing breakdown:
Section |  min time  |  avg time  |  max time  |%varavg| %total
---------------------------------------------------------------
Pair    | 1.6267     | 1.7345     | 1.8267     |   3.3 | 10.10
Neigh   | 0.58272    | 0.60967    | 0.65814    |   2.1 |  3.55
Comm    | 0.34261    | 0.48253    | 0.61705    |   8.1 |  2.81
Output  | 10.039     | 10.309     | 14.314     |  32.2 | 60.04
Modify  | 0.020354   | 4.0263     | 4.2967     |  51.5 | 23.45
Other   |            | 0.006783   |            |       |  0.04

Nlocal:    62.5 ave 70 max 55 min
Histogram: 1 1 3 0 5 1 1 0 1 3
Nghost:    1852.94 ave 1880 max 1822 min
Histogram: 1 2 0 1 1 3 3 4 0 1
Neighs:    0 ave 0 max 0 min
Histogram: 16 0 0 0 0 0 0 0 0 0
FullNghs:  18842.5 ave 21234 max 16708 min
Histogram: 1 4 0 1 4 1 1 1 0 3

Total # of neighbors = 301480
Ave neighs/atom = 301.48
Neighbor list builds = 1000
Dangerous builds not checked
Setting up Verlet run ...
  Unit style    : real
  Current step  : 24000
  Time step     : 1
Per MPI rank memory allocation (min/avg/max) = 4.577 | 4.578 | 4.579 Mbytes
Step Temp E_pair E_mol TotEng Press Volume Lx Ly Lz S/CPU 
   24000    287.85934   -10501.716            0   -9644.5205    13215.249    782.07529    9.2133207    9.2133207    9.2133207            0 
   24100    300.93611   -10537.992            0   -9641.8552     121.8155    782.11871    9.2134912    9.2134912    9.2134912    49.794307 
   24200    292.64244   -10508.841            0   -9637.4015    1457.4967      782.211    9.2138536    9.2138536    9.2138536    72.077657 
   24300    300.76905   -10526.754            0   -9631.1153    3104.7579     782.6017    9.2153874    9.2153874    9.2153874    59.073789 
   24400    301.44419   -10518.398            0   -9620.7486   -16771.136    783.40006      9.21852      9.21852      9.21852     77.87555 
   24500    311.30949   -10534.508            0   -9607.4816    -10060.02    783.86638    9.2203487    9.2203487    9.2203487     54.60924 
   24600    299.87646   -10483.503            0   -9590.5218   -2494.4854    783.93094    9.2206018    9.2206018    9.2206018    59.356427 
   24700    306.90947   -10491.045            0   -9577.1205   -9334.6506    783.77419    9.2199872    9.2199872    9.2199872    58.884036 
   24800     302.5859   -10467.489            0   -9566.4403    5709.2856    783.67214    9.2195871    9.2195871    9.2195871    53.325891 
   24900    305.30924   -10468.707            0   -9559.5484    10974.823    783.78306     9.220022     9.220022     9.220022    57.260716 
   25000    310.87079   -10481.401            0   -9555.6805    8245.2639    784.40993    9.2224794    9.2224794    9.2224794    60.687006 
Loop time of 16.8562 on 16 procs for 1000 steps with 1000 atoms

Performance: 5.126 ns/day, 4.682 hours/ns, 59.325 timesteps/s
94.5% CPU use with 16 MPI tasks x no OpenMP threads

MPI task timing breakdown:
Section |  min time  |  avg time  |  max time  |%varavg| %total
---------------------------------------------------------------
Pair    | 1.6444     | 1.7323     | 1.8145     |   3.4 | 10.28
Neigh   | 0.58417    | 0.60882    | 0.64776    |   1.9 |  3.61
Comm    | 0.39313    | 0.48842    | 0.58729    |   7.8 |  2.90
Output  | 9.44       | 9.7279     | 13.999     |  35.4 | 57.71
Modify  | 0.020366   | 4.292      | 4.58       |  53.2 | 25.46
Other   |            | 0.006824   |            |       |  0.04

Nlocal:    62.5 ave 67 max 58 min
Histogram: 3 0 0 3 1 0 6 2 0 1
Nghost:    1859.56 ave 1895 max 1834 min
Histogram: 3 1 3 0 1 5 1 1 0 1
Neighs:    0 ave 0 max 0 min
Histogram: 16 0 0 0 0 0 0 0 0 0
FullNghs:  18814.5 ave 20216 max 17313 min
Histogram: 3 0 0 2 2 0 4 3 1 1

Total # of neighbors = 301032
Ave neighs/atom = 301.032
Neighbor list builds = 1000
Dangerous builds not checked
Setting up Verlet run ...
  Unit style    : real
  Current step  : 25000
  Time step     : 1
Per MPI rank memory allocation (min/avg/max) = 4.577 | 4.578 | 4.579 Mbytes
Step Temp E_pair E_mol TotEng Press Volume Lx Ly Lz S/CPU 
   25000    310.87079   -10481.401            0   -9555.6805    8245.2639    784.40993    9.2224794    9.2224794    9.2224794            0 
   25100    305.75452   -10463.836            0   -9553.3511    3585.9417    785.32371    9.2260592    9.2260592    9.2260592    63.623152 
   25200    319.11617   -10503.418            0   -9553.1445   -5587.2517     786.3554    9.2300976    9.2300976    9.2300976     57.61973 
   25300    310.31911   -10477.736            0   -9553.6585    8258.9711    787.33448    9.2339267    9.2339267    9.2339267    55.540268 
   25400     301.6243   -10453.734            0   -9555.5479    1323.0545    788.57748    9.2387835    9.2387835    9.2387835    57.217251 
   25500    307.19836   -10474.776            0   -9559.9916   -459.03151    789.87453     9.243846     9.243846     9.243846     59.73241 
   25600    306.71676   -10476.988            0    -9563.638    3007.2861    791.09264    9.2485954    9.2485954    9.2485954    61.040939 
   25700    297.77114   -10454.611            0   -9567.8992   -1621.9595     792.3633    9.2535445    9.2535445    9.2535445    69.971733 
   25800    280.94128   -10407.072            0   -9570.4772   -9374.2095     793.4926    9.2579385    9.2579385    9.2579385     48.11626 
   25900    290.29659   -10439.422            0   -9574.9682   -15783.502    794.18641    9.2606361    9.2606361    9.2606361    63.380699 
   26000    296.31858   -10461.651            0   -9579.2644   -2725.5006    794.43722    9.2616108    9.2616108    9.2616108    47.671408 
Loop time of 17.3508 on 16 procs for 1000 steps with 1000 atoms

Performance: 4.980 ns/day, 4.820 hours/ns, 57.634 timesteps/s
94.5% CPU use with 16 MPI tasks x no OpenMP threads

MPI task timing breakdown:
Section |  min time  |  avg time  |  max time  |%varavg| %total
---------------------------------------------------------------
Pair    | 1.6213     | 1.6993     | 1.7645     |   3.4 |  9.79
Neigh   | 0.58994    | 0.60448    | 0.6167     |   1.1 |  3.48
Comm    | 0.37841    | 0.45076    | 0.54307    |   7.2 |  2.60
Output  | 9.7952     | 10.096     | 14.569     |  36.3 | 58.19
Modify  | 0.020133   | 4.493      | 4.7945     |  54.5 | 25.89
Other   |            | 0.006755   |            |       |  0.04

Nlocal:    62.5 ave 68 max 57 min
Histogram: 1 2 1 1 2 4 2 0 2 1
Nghost:    1837.06 ave 1871 max 1806 min
Histogram: 2 1 2 3 2 0 0 3 1 2
Neighs:    0 ave 0 max 0 min
Histogram: 16 0 0 0 0 0 0 0 0 0
FullNghs:  18593.1 ave 20461 max 16825 min
Histogram: 1 2 1 1 2 5 1 2 0 1

Total # of neighbors = 297490
Ave neighs/atom = 297.49
Neighbor list builds = 1000
Dangerous builds not checked
Setting up Verlet run ...
  Unit style    : real
  Current step  : 26000
  Time step     : 1
Per MPI rank memory allocation (min/avg/max) = 4.577 | 4.578 | 4.579 Mbytes
Step Temp E_pair E_mol TotEng Press Volume Lx Ly Lz S/CPU 
   26000    296.31858   -10461.651            0   -9579.2644   -2725.5006    794.43722    9.2616108    9.2616108    9.2616108            0 
   26100     293.6744   -10457.465            0   -9582.9527   -8774.1732    794.52696    9.2619595    9.2619595    9.2619595    58.318541 
   26200    293.00484   -10457.212            0    -9584.694   -8470.5573     794.1559    9.2605175    9.2605175    9.2605175    83.298228 
   26300    297.72505   -10473.134            0   -9586.5593    -12673.98    793.20862     9.256834     9.256834     9.256834    60.298688 
   26400    290.91203   -10453.082            0   -9586.7958    5873.4562    791.89699    9.2517289    9.2517289    9.2517289    54.596488 
   26500    300.28001   -10482.431            0   -9588.2484    -5625.154    790.45928    9.2461266    9.2461266    9.2461266    63.416398 
   26600    308.50632   -10507.758            0   -9589.0784    8001.8902    788.90456    9.2400607    9.2400607    9.2400607    52.861865 
   26700    301.74266   -10487.787            0   -9589.2491   -155.37631    787.95237    9.2363416    9.2363416    9.2363416    69.109452 
   26800    301.23965   -10487.542            0    -9590.502    3278.8438    787.44185    9.2343465    9.2343465    9.2343465    60.021159 
   26900    291.53789   -10457.707            0   -9589.5569   -67.926584    787.06143    9.2328591    9.2328591    9.2328591    62.040973 
   27000    307.38463   -10504.667            0   -9589.3284   -5568.5216    786.74817    9.2316341    9.2316341    9.2316341     52.98608 
Loop time of 16.4861 on 16 procs for 1000 steps with 1000 atoms

Performance: 5.241 ns/day, 4.579 hours/ns, 60.657 timesteps/s
94.5% CPU use with 16 MPI tasks x no OpenMP threads

MPI task timing breakdown:
Section |  min time  |  avg time  |  max time  |%varavg| %total
---------------------------------------------------------------
Pair    | 1.6167     | 1.6967     | 1.7911     |   3.5 | 10.29
Neigh   | 0.5822     | 0.60486    | 0.63069    |   1.8 |  3.67
Comm    | 0.3453     | 0.45727    | 0.55964    |   8.4 |  2.77
Output  | 9.1393     | 9.4271     | 13.7       |  35.9 | 57.18
Modify  | 0.019939   | 4.2934     | 4.5815     |  53.3 | 26.04
Other   |            | 0.006724   |            |       |  0.04

Nlocal:    62.5 ave 68 max 58 min
Histogram: 1 1 2 4 1 2 0 3 0 2
Nghost:    1869.31 ave 1879 max 1853 min
Histogram: 1 1 0 1 2 2 1 2 4 2
Neighs:    0 ave 0 max 0 min
Histogram: 16 0 0 0 0 0 0 0 0 0
FullNghs:  18778.6 ave 20560 max 17356 min
Histogram: 2 0 4 2 2 1 2 1 0 2

Total # of neighbors = 300458
Ave neighs/atom = 300.458
Neighbor list builds = 1000
Dangerous builds not checked
Setting up Verlet run ...
  Unit style    : real
  Current step  : 27000
  Time step     : 1
Per MPI rank memory allocation (min/avg/max) = 4.577 | 4.578 | 4.579 Mbytes
Step Temp E_pair E_mol TotEng Press Volume Lx Ly Lz S/CPU 
   27000    307.38463   -10504.667            0   -9589.3284   -5568.5216    786.74817    9.2316341    9.2316341    9.2316341            0 
   27100    307.26646   -10504.339            0   -9589.3517    1499.1048    786.68516    9.2313876    9.2313876    9.2313876    52.476901 
   27200    303.79557   -10494.105            0   -9589.4533   -9800.9351     786.6587    9.2312841    9.2312841    9.2312841    51.800026 
   27300    305.74965   -10500.471            0   -9590.0006   -9309.4036    786.57716    9.2309651    9.2309651    9.2309651    72.438902 
   27400    300.56473   -10485.415            0   -9590.3849   -12220.582    786.15442    9.2293111    9.2293111    9.2293111    57.372811 
   27500    303.40588   -10496.295            0   -9592.8043    345.26939    785.14342    9.2253531    9.2253531    9.2253531    64.363069 
   27600    313.30853   -10529.334            0   -9596.3547   -6631.7875    784.14924    9.2214576    9.2214576    9.2214576    59.495343 
   27700    298.24612   -10488.187            0   -9600.0606   -6955.2538    783.10627    9.2173674    9.2173674    9.2173674    79.544411 
   27800      309.376   -10525.852            0   -9604.5831   -1268.7571     782.3706    9.2144802    9.2144802    9.2144802    49.202543 
   27900    298.17715   -10497.266            0    -9609.345    1813.3079    781.81699    9.2123063    9.2123063    9.2123063    50.943425 
   28000    303.63267   -10518.938            0   -9614.7718    1919.0946    781.59743    9.2114438    9.2114438    9.2114438    65.270393 
Loop time of 16.9787 on 16 procs for 1000 steps with 1000 atoms

[...]
  727700    303.78142   -11330.685            0   -10426.076    630.07238    729.22183    9.0009128    9.0009128    9.0009128    48.781787 
  727800    302.90937   -11331.418            0   -10429.406    4230.6029     730.1549    9.0047502    9.0047502    9.0047502    62.225686 
  727900    301.91852     -11333.7            0   -10434.639   -7687.0374    730.87744    9.0077195    9.0077195    9.0077195      54.8021 
  728000    296.43019   -11323.661            0   -10440.943   -2885.2092     731.3524    9.0096703    9.0096703    9.0096703    65.914569 
  728100    298.07177   -11337.334            0   -10449.727   -16945.622    731.44011    9.0100304    9.0100304    9.0100304    49.063844 
  728200    291.46349   -11324.409            0    -10456.48   -6616.7073     730.4593    9.0060013    9.0060013    9.0060013    65.384964 
  728300    294.28855   -11341.857            0   -10465.516   -1188.1055    728.53527    8.9980871    8.9980871    8.9980871    57.112381 
  728400    293.59022   -11348.216            0   -10473.955    6245.8432    726.55132    8.9899118    8.9899118    8.9899118    54.435879 
  728500    301.99183    -11381.55            0    -10482.27   -2280.3265    724.85601    8.9829141    8.9829141    8.9829141    59.377965 
  728600    291.85112   -11358.323            0    -10489.24    14226.091    723.68189    8.9780613    8.9780613    8.9780613    45.227881 
  728700    297.46371   -11382.125            0   -10496.329   -706.20287    723.29861     8.976476     8.976476     8.976476    55.520352 
  728800    295.77229   -11381.653            0   -10500.893    39639.853    723.41013    8.9769374    8.9769374    8.9769374    57.878819 
  728900    293.86361   -11380.272            0   -10505.196    1066.3211    724.48667    8.9813882    8.9813882    8.9813882    51.285822 
  729000    288.87838       -11367            0   -10506.769    19494.801    726.26989    8.9887509    8.9887509    8.9887509    77.425131 
  729100    283.65776   -11349.381            0   -10504.696    96.710208    728.63287    8.9984889    8.9984889    8.9984889    50.784471 
  729200    295.80149   -11383.075            0   -10502.228   -4103.8264    730.40212    9.0057663    9.0057663    9.0057663    56.246212 
  729300    294.36519   -11372.933            0   -10496.363   -13226.101    731.41517     9.009928     9.009928     9.009928     57.07182 
  729400    290.28319   -11351.396            0   -10486.982   -842.15279    731.60357    9.0107015    9.0107015    9.0107015    63.092776 
  729500    295.69266   -11353.099            0   -10472.577     6320.518    731.36474     9.009721     9.009721     9.009721    50.063448 
  729600    301.79818   -11351.947            0   -10453.243   -15218.301    730.83826    9.0075585    9.0075585    9.0075585    64.856458 
  729700     296.1679   -11315.755            0   -10433.817   -9808.5933    729.65108    9.0026785    9.0026785    9.0026785    55.357937 
  729800    314.79406   -11361.043            0    -10423.64    -14008.89    728.26125    8.9969589    8.9969589    8.9969589     60.76148 
  729900    296.98101   -11299.685            0   -10415.326    5490.1304    726.74753     8.990721     8.990721     8.990721    56.046784 
  730000    304.45126   -11318.731            0   -10412.127    11522.318    725.53888    8.9857341    8.9857341    8.9857341    62.559861 
  730100    311.82398   -11340.552            0   -10411.994    21593.235    724.92418    8.9831957    8.9831957    8.9831957    56.788279 
  730200    305.12145   -11321.269            0   -10412.669    3452.4474     725.3465    8.9849398    8.9849398    8.9849398    53.126647 
  730300    308.23206   -11331.532            0    -10413.67    4195.2934    726.72644     8.990634     8.990634     8.990634    54.861531 
  730400    306.98814   -11330.942            0   -10416.783   -7521.1238    728.35927    8.9973625    8.9973625    8.9973625    70.748594 
  730500    298.60163   -11309.351            0   -10420.166   -7464.6861    729.77385    9.0031834    9.0031834    9.0031834    61.386462 
  730600    309.51936   -11346.649            0   -10424.953    1138.2017    730.84616    9.0075909    9.0075909    9.0075909    50.209478 
  730700    298.39349   -11319.123            0   -10430.558   -5426.3187    731.41069    9.0099096    9.0099096    9.0099096    58.894914 
  730800    303.37703   -11339.496            0   -10436.091   -6655.4693    731.14248    9.0088082    9.0088082    9.0088082    71.918223 
  730900    308.51854   -11361.629            0   -10442.914   -7657.1569    730.09434    9.0045012    9.0045012    9.0045012    56.241632 
  731000    295.95534   -11330.567            0   -10449.262    3585.7223    728.58338    8.9982852    8.9982852    8.9982852    47.696185 
  731100    297.04873    -11340.26            0     -10455.7    4031.1603    727.03713    8.9919151    8.9919151    8.9919151    67.693596 
  731200    296.26452   -11344.901            0   -10462.676   -2838.8617    725.77884    8.9867246    8.9867246    8.9867246    53.486432 
  731300    295.32055   -11348.336            0   -10468.922    12194.369    725.13018    8.9840465    8.9840465    8.9840465    52.890233 
  731400    300.45853   -11372.101            0   -10477.387    1877.5942    725.05259    8.9837261    8.9837261    8.9837261    51.276157 
  731500    301.52509   -11381.743            0   -10483.853    1424.3041    725.57154    8.9858689    8.9858689    8.9858689    56.656273 
  731600    296.40576    -11374.03            0   -10491.384     4500.897    726.42892     8.989407     8.989407     8.989407    60.711077 
  731700    299.14487   -11388.315            0   -10497.512   -7167.9092    727.23941    8.9927489    8.9927489    8.9927489    50.770728 
  731800    290.89286   -11367.658            0   -10501.429   -8821.3456    727.85155    8.9952714    8.9952714    8.9952714    57.680679 
  731900    287.39363   -11362.048            0   -10506.239   -10940.609    728.29812    8.9971107    8.9971107    8.9971107    54.379531 
  732000    292.09774   -11378.489            0   -10508.672   -7086.3261    728.57926    8.9982682    8.9982682    8.9982682     62.46989 
  732100    289.30589    -11372.12            0   -10510.616   -4900.8003    728.49624    8.9979264    8.9979264    8.9979264    47.647649 
  732200    288.02646   -11367.922            0   -10510.229    -6970.778     728.0247    8.9959846    8.9959846    8.9959846    47.215724 
  732300    298.93317   -11400.895            0   -10510.723    4778.6467    727.24784    8.9927837    8.9927837    8.9927837    57.266431 
  732400    291.14282   -11373.087            0   -10506.114    2591.8013    726.65125     8.990324     8.990324     8.990324    65.683556 
  732500    295.74765   -11380.303            0   -10499.617    4157.7206    726.32197    8.9889658    8.9889658    8.9889658    62.832862 
  732600    291.50924   -11356.536            0   -10488.472    9814.5588    726.42161    8.9893768    8.9893768    8.9893768    54.103626 
  732700    295.71448   -11353.837            0    -10473.25   -2705.2618    726.80939    8.9909761    8.9909761    8.9909761    57.432218 
  732800    300.31932   -11351.048            0   -10456.749   -1026.9514    727.33852    8.9931574    8.9931574    8.9931574    52.616531 
  732900    309.87321   -11367.041            0   -10444.292   -9240.5816    727.75308    8.9948657    8.9948657    8.9948657    61.621071 
  733000    308.03475   -11351.594            0   -10434.319   -3323.2068    728.16545    8.9965643    8.9965643    8.9965643    50.805133 
  733100    304.98038   -11334.784            0   -10426.604    134.32477    728.46892     8.997814     8.997814     8.997814    73.540704 
  733200    306.97503   -11336.001            0   -10421.882    5767.2832    728.82995    8.9993002    8.9993002    8.9993002    49.693365 
  733300    308.53719   -11337.849            0   -10419.078    6696.2852    729.56751    9.0023348    9.0023348    9.0023348    41.868567 
  733400    295.85567   -11297.556            0   -10416.548    7769.1643    730.58317    9.0065104    9.0065104    9.0065104    52.860267 
  733500    306.20262    -11328.16            0   -10416.341    12070.114    731.93895    9.0120782    9.0120782    9.0120782    53.392613 
  733600     307.0878   -11329.209            0   -10414.754   -5320.3312    733.20028     9.017252     9.017252     9.017252    58.733577 
  733700    300.98985   -11310.998            0   -10414.701   -16624.228    734.32789    9.0218723    9.0218723    9.0218723    55.713417 
  733800    297.26031   -11300.762            0   -10415.571    532.65848    735.09033    9.0249936    9.0249936    9.0249936    64.075382 
  733900    297.00463   -11300.858            0   -10416.429    613.00298    735.82529    9.0280004    9.0280004    9.0280004    64.847023 
  734000    304.87002   -11324.906            0   -10417.056    3480.2281    736.20721    9.0295621    9.0295621    9.0295621    46.048695 
  734100    299.38931   -11308.396            0   -10416.866   -9557.3658    736.00335    9.0287286    9.0287286    9.0287286    54.127434 
  734200    304.51826   -11324.408            0   -10417.605   -12134.105    735.05377     9.024844     9.024844     9.024844    56.858982 
  734300    306.43139   -11334.028            0   -10421.527    1125.9342    733.52512    9.0185835    9.0185835    9.0185835    66.584097 
  734400    301.21838    -11320.56            0   -10423.583    3628.6786      731.718    9.0111713    9.0111713    9.0111713    53.935754 
  734500     310.8905   -11356.046            0   -10430.267   -4208.8848    729.77998    9.0032087    9.0032087    9.0032087    54.614461 
  734600    303.43515   -11340.773            0   -10437.195   -2710.7174    727.76335     8.994908     8.994908     8.994908    69.706306 
  734700    304.87626   -11355.641            0   -10447.771    7328.9033    726.01706    8.9877078    8.9877078    8.9877078    63.458287 
  734800    297.74134    -11347.73            0   -10461.107    12665.928    724.94149    8.9832672    8.9832672    8.9832672    45.613129 
  734900    303.84793   -11379.927            0    -10475.12    24012.545    724.95733    8.9833327    8.9833327    8.9833327    69.954477 
  735000    293.96778   -11360.179            0   -10484.793    12782.897    725.93884    8.9873849    8.9873849    8.9873849    51.326602 
  735100    289.69918   -11356.352            0   -10493.678   -12370.008    727.42173    8.9935004    8.9935004    8.9935004    62.518175 
  735200    283.03406   -11341.686            0   -10498.859    9636.0537    728.96111      8.99984      8.99984      8.99984    52.075052 
  735300    284.95538   -11351.046            0   -10502.498   -11665.864    730.27979    9.0052636    9.0052636    9.0052636    65.552682 
  735400    285.59963   -11354.267            0     -10503.8   -19053.616    730.93923    9.0079733    9.0079733    9.0079733    53.216812 
  735500    285.73979   -11353.442            0   -10502.557   -15586.378     730.6502    9.0067858    9.0067858    9.0067858    47.818751 
  735600    294.49363   -11377.966            0   -10501.014   -9051.6698    729.56876      9.00234      9.00234      9.00234    52.526792 
  735700    298.82556   -11388.674            0   -10498.823     6704.062    728.04682    8.9960757    8.9960757    8.9960757    59.880622 
  735800    297.78187   -11380.384            0    -10493.64   -4998.5774    726.50815    8.9897338    8.9897338    8.9897338    49.712722 
  735900    299.05821    -11378.49            0   -10487.945    16348.211    725.19011    8.9842941    8.9842941    8.9842941    50.111128 
  736000    296.30838   -11363.578            0   -10481.222    20519.808    724.80976    8.9827231    8.9827231    8.9827231    52.282917 
  736100    307.38671   -11390.984            0   -10475.639    9646.1124    725.17434    8.9842289    8.9842289    8.9842289    66.524609 
  736200    298.66174   -11354.838            0   -10465.474     -4095.89    726.20684    8.9884908    8.9884908    8.9884908    49.826967 
  736300    302.65523   -11357.307            0   -10456.052   -171.05777    727.65236    8.9944507    8.9944507    8.9944507     51.64868 
  736400     298.6158   -11335.069            0   -10445.842     2074.223    729.02993    9.0001231    9.0001231    9.0001231    62.234657 
  736500    302.59284   -11336.591            0   -10435.522   -18961.972    730.37161     9.005641     9.005641     9.005641    63.423748 
  736600    298.10674   -11313.676            0   -10425.965   -8634.1612    731.52489    9.0103785    9.0103785    9.0103785    59.953982 
  736700    288.21269    -11275.18            0   -10416.932   -11406.642    732.13855    9.0128973    9.0128973    9.0128973    60.193042 
  736800    304.68397   -11320.064            0   -10412.768   -3259.5619    732.10516    9.0127604    9.0127604    9.0127604    66.531133 
  736900    301.55642   -11306.549            0   -10408.566    3119.3926    731.65861    9.0109275    9.0109275    9.0109275    61.257851 
  737000    313.69843   -11343.134            0   -10408.994   -15844.106    731.01497    9.0082844    9.0082844    9.0082844    61.838263 
  737100    307.71613   -11324.236            0    -10407.91   -3746.6005    730.34152    9.0055173    9.0055173    9.0055173    57.726037 
  737200    308.19562   -11326.438            0   -10408.684    5747.6865    729.69014    9.0028392    9.0028392    9.0028392    60.081377 
  737300    304.23064   -11315.607            0    -10409.66    3923.3199    729.32319    9.0013298    9.0013298    9.0013298    48.827561 
  737400    309.87099   -11335.568            0   -10412.825    8082.6883    729.00095    9.0000039    9.0000039    9.0000039    54.504817 
  737500    300.56743   -11310.884            0   -10415.845    830.79825    728.88125    8.9995113    8.9995113    8.9995113    52.619476 
  737600    297.36198   -11305.345            0   -10419.852    2504.5774    729.03875    9.0001595    9.0001595    9.0001595    69.120025 
  737700    302.39319   -11324.997            0   -10424.522    5363.0581     729.2919    9.0012011    9.0012011    9.0012011     46.59983 
  737800     302.8429   -11332.111            0   -10430.297   -1824.2902     729.4339    9.0017852    9.0017852    9.0017852    52.333079 
  737900    293.03544   -11306.733            0   -10434.123    3505.9545    729.42149    9.0017342    9.0017342    9.0017342    50.432989 
  738000    292.83959   -11310.434            0   -10438.408   -2187.8465    729.40024    9.0016468    9.0016468    9.0016468      73.4112 
  738100    304.08568   -11350.116            0     -10444.6    7278.6193    729.31676    9.0013033    9.0013033    9.0013033    53.558055 
  738200    300.75056   -11345.561            0   -10449.977    11648.163    729.12979    9.0005341    9.0005341    9.0005341    48.612055 
  738300    294.37559   -11331.985            0   -10455.385   -9270.7296    728.71466    8.9988256    8.9988256    8.9988256    65.647908 
  738400    306.75263   -11376.609            0   -10463.152    11194.798    728.10008    8.9962951    8.9962951    8.9962951    59.620681 
  738500    292.43865   -11340.023            0    -10469.19    574.15864    727.69386    8.9946217    8.9946217    8.9946217    41.647534 
  738600    295.83148   -11356.401            0   -10475.466    1808.7212    727.59685     8.994222     8.994222     8.994222    57.929886 
  738700    295.65056   -11362.759            0   -10482.363   -7622.4305    727.96736    8.9957484    8.9957484    8.9957484    56.710257 
  738800    289.30596   -11348.401            0   -10486.897     -18.5742    728.45925    8.9977741    8.9977741    8.9977741    59.488565 
  738900    292.66047    -11364.13            0   -10492.637   -13796.862    728.90485    8.9996084    8.9996084    8.9996084    54.703233 
  739000    291.21296   -11365.795            0   -10498.612   -9589.9797    729.25628    9.0010545    9.0010545    9.0010545    53.515159 
  739100    297.65829   -11390.009            0   -10503.634   -8967.3491     729.5371    9.0022098    9.0022098    9.0022098    45.215928 
  739200    288.46131   -11365.831            0   -10506.843    4999.7418    729.51834    9.0021326    9.0021326    9.0021326    70.876315 
  739300    288.15832   -11369.453            0   -10511.367   -3109.1512     729.2618    9.0010772    9.0010772    9.0010772    45.173388 
  739400    295.99952   -11399.057            0   -10517.621   -4881.6375    728.66171    8.9986076    8.9986076    8.9986076    49.987934 
  739500    293.23223   -11394.325            0    -10521.13   -8281.6945    727.71642    8.9947147    8.9947147    8.9947147    52.076674 
  739600    302.63717   -11428.626            0   -10527.425    2960.7729    726.44431    8.9894705    8.9894705    8.9894705    63.942407 
  739700    294.84812   -11406.673            0   -10528.665    12206.274    725.02318    8.9836046    8.9836046    8.9836046     54.38829 
  739800    297.64669   -11417.845            0   -10531.504    12948.814    723.91167    8.9790115    8.9790115    8.9790115     58.67682 
  739900    290.60324   -11395.925            0   -10530.558   -1193.1158    723.44235    8.9770707    8.9770707    8.9770707    73.076374 
  740000    290.70007   -11394.176            0   -10528.521    19818.808    723.87376    8.9788547    8.9788547    8.9788547    57.137384 
  740100    296.97376   -11409.773            0   -10525.436    134.64045    725.29926    8.9847448    8.9847448    8.9847448    59.309517 
  740200    291.51235   -11384.901            0   -10516.827    2100.8126    727.09299    8.9921454    8.9921454    8.9921454      49.9146 
  740300    285.03573   -11356.531            0   -10507.743   -4410.9988    728.93516    8.9997332    8.9997332    8.9997332     52.29352 
  740400     289.2102   -11357.092            0   -10495.873    2405.7437    730.55784    9.0064063    9.0064063    9.0064063    54.118211 
  740500    290.63815   -11348.562            0   -10483.092   -20841.715    731.54003    9.0104407    9.0104407    9.0104407    70.697255 
  740600    295.65897   -11350.471            0   -10470.049   -10783.959    731.67863    9.0110097    9.0110097    9.0110097    50.347713 
  740700    291.83937   -11328.967            0   -10459.919   -10689.743    731.13059    9.0087593    9.0087593    9.0087593    54.097249 
  740800    284.32004   -11294.493            0   -10447.836   -556.11164    730.02349    9.0042099    9.0042099    9.0042099    52.070516 
  740900    297.00632   -11324.509            0   -10440.075    7522.1397    728.75118    8.9989759    8.9989759    8.9989759    57.024919 
  741000    291.83541   -11300.962            0   -10431.926   -1935.7859    727.48094    8.9937444    8.9937444    8.9937444    45.611359 
Loop time of 1755.23 on 16 procs for 100000 steps with 1000 atoms

Performance: 4.922 ns/day, 4.876 hours/ns, 56.973 timesteps/s
94.5% CPU use with 16 MPI tasks x no OpenMP threads

MPI task timing breakdown:
Section |  min time  |  avg time  |  max time  |%varavg| %total
---------------------------------------------------------------
Pair    | 168.03     | 176.93     | 187.59     |  37.8 | 10.08
Neigh   | 58.811     | 62.741     | 66.042     |  26.5 |  3.57
Comm    | 34.995     | 47.613     | 60.433     |  95.1 |  2.71
Output  | 990        | 1020       | 1465.2     | 359.9 | 58.11
Modify  | 2.045      | 447.23     | 477.25     | 543.5 | 25.48
Other   |            | 0.6992     |            |       |  0.04

Nlocal:    62.5 ave 69 max 57 min
Histogram: 1 2 0 2 0 10 0 0 0 1
Nghost:    1958.81 ave 1977 max 1947 min
Histogram: 1 2 3 4 1 2 0 0 2 1
Neighs:    0 ave 0 max 0 min
Histogram: 16 0 0 0 0 0 0 0 0 0
FullNghs:  20225.4 ave 22263 max 18404 min
Histogram: 1 2 0 2 2 6 2 0 0 1

Total # of neighbors = 323606
Ave neighs/atom = 323.606
Neighbor list builds = 100000
Dangerous builds not checked
Total wall time: 3:31:49
