LAMMPS (16 Mar 2018)
Reading data file ...
  orthogonal box = (-4.70893 -4.70893 -4.70893) to (4.70893 4.70893 4.70893)
  2 by 2 by 4 MPI processor grid
  reading atoms ...
  1000 atoms
Reading potential file /home/fs01/ajm529/lammps-16Mar18/potentials/sw_potentials/AG/eps2.23.sw with DATE: 2008-01-29
Neighbor list info ...
  update every 1 steps, delay 0 steps, check no
  max neighbors/atom: 2000, page size: 100000
  master list distance cutoff = 3.836
  ghost atom cutoff = 3.836
  binsize = 1.918, bins = 5 5 5
  1 neighbor lists, perpetual/occasional/extra = 1 0 0
  (1) pair sw, perpetual
      attributes: full, newton on
      pair build: full/bin/atomonly
      stencil: full/bin/3d
      bin: standard
Setting up Verlet run ...
  Unit style    : real
  Current step  : 0
  Time step     : 1
Per MPI rank memory allocation (min/avg/max) = 3.518 | 3.519 | 3.521 Mbytes
Step Temp E_pair E_mol TotEng Press Volume Lx Ly Lz S/CPU 
       0          300   -10086.015            0   -9192.6662   -25292.943    835.32598    9.4178549    9.4178549    9.4178549            0 
     100    326.49984   -10169.326            0   -9197.0657   -42129.274    833.85587    9.4123268    9.4123268    9.4123268    52.743209 
     200     325.0454   -10179.325            0   -9211.3952   -44699.364    829.27509    9.3950596    9.3950596    9.3950596    65.872657 
     300    335.76601   -10234.377            0   -9234.5235   -39855.492    822.06794    9.3677632    9.3677632    9.3677632    53.451973 
     400    333.32686   -10253.514            0   -9260.9239    -29027.03    812.79631    9.3324121    9.3324121    9.3324121    64.659022 
     500    325.83257   -10251.604            0   -9281.3307   -6281.9421     802.5652    9.2930893    9.2930893    9.2930893    57.803095 
     600    344.57982   -10325.663            0   -9299.5636   -7273.8902    793.09757     9.256402     9.256402     9.256402    67.407901 
     700    336.02775   -10318.046            0   -9317.4127    13142.956    785.21046    9.2256157    9.2256157    9.2256157    53.549939 
     800    328.31256    -10314.71            0   -9337.0509    13926.749    779.60289    9.2036016    9.2036016    9.2036016    67.249316 
     900    325.09874   -10326.247            0   -9358.1581    19322.151    776.18952    9.1901498    9.1901498    9.1901498    54.633826 
    1000    324.21112   -10346.245            0   -9380.7998    19715.278    774.74763    9.1844556    9.1844556    9.1844556    62.695032 
Loop time of 16.8248 on 16 procs for 1000 steps with 1000 atoms

Performance: 5.135 ns/day, 4.674 hours/ns, 59.436 timesteps/s
95.0% CPU use with 16 MPI tasks x no OpenMP threads

MPI task timing breakdown:
Section |  min time  |  avg time  |  max time  |%varavg| %total
---------------------------------------------------------------
Pair    | 1.6979     | 1.9593     | 2.5347     |  12.4 | 11.65
Neigh   | 0.62864    | 0.69027    | 0.85854    |   5.9 |  4.10
Comm    | 0.71756    | 1.4613     | 1.7842     |  18.3 |  8.69
Output  | 8.6858     | 8.9395     | 12.676     |  32.3 | 53.13
Modify  | 0.029175   | 3.7668     | 4.0211     |  49.7 | 22.39
Other   |            | 0.007742   |            |       |  0.05

Nlocal:    62.5 ave 67 max 57 min
Histogram: 1 0 2 2 0 3 1 3 2 2
Nghost:    1871.94 ave 1882 max 1859 min
Histogram: 1 0 2 3 1 2 2 0 2 3
Neighs:    0 ave 0 max 0 min
Histogram: 16 0 0 0 0 0 0 0 0 0
FullNghs:  19045 ave 20482 max 17281 min
Histogram: 1 1 1 2 0 3 3 3 0 2

Total # of neighbors = 304720
Ave neighs/atom = 304.72
Neighbor list builds = 1000
Dangerous builds not checked
Setting up Verlet run ...
  Unit style    : real
  Current step  : 1000
  Time step     : 1
Per MPI rank memory allocation (min/avg/max) = 3.522 | 4.411 | 4.58 Mbytes
Step Temp E_pair E_mol TotEng Press Volume Lx Ly Lz S/CPU 
    1000    324.21112   -10346.245            0   -9380.7998    19715.278    774.74763    9.1844556    9.1844556    9.1844556            0 
    1100    328.53366   -10380.151            0   -9401.8334    8359.7421     774.8055    9.1846843    9.1846843    9.1846843    52.823799 
    1200     331.0428   -10408.844            0   -9423.0551    14440.175     775.6734    9.1881124    9.1881124    9.1881124    59.000907 
    1300    322.08501   -10403.863            0   -9444.7485    26299.518    777.32136    9.1946147    9.1946147    9.1946147    51.522119 
    1400    320.45949   -10421.581            0   -9467.3074    4208.8993    780.09703    9.2055458    9.2055458    9.2055458    47.803236 
    1500    311.91958   -10414.884            0   -9486.0411    16698.038    783.43402    9.2186532    9.2186532    9.2186532    58.848281 
    1600     298.2698   -10392.365            0    -9504.169    7685.3765     786.9286    9.2323397    9.2323397    9.2323397    43.595631 
    1700    309.29003   -10442.183            0   -9521.1698    7863.8553    790.09841    9.2447193    9.2447193    9.2447193    39.944985 
    1800    291.61275   -10404.866            0   -9536.4927   -5229.5217    792.93529    9.2557706    9.2557706    9.2557706    64.987849 
    1900    304.98153   -10460.678            0   -9552.4946   -656.71352    795.03236     9.263923     9.263923     9.263923    48.315051 
    2000     303.4006   -10467.851            0   -9564.3755   -20095.816    796.20662    9.2684817    9.2684817    9.2684817    62.268451 
Loop time of 19.3318 on 16 procs for 1000 steps with 1000 atoms

Performance: 4.469 ns/day, 5.370 hours/ns, 51.728 timesteps/s
94.9% CPU use with 16 MPI tasks x no OpenMP threads

MPI task timing breakdown:
Section |  min time  |  avg time  |  max time  |%varavg| %total
---------------------------------------------------------------
Pair    | 1.8512     | 2.0428     | 2.5614     |  10.5 | 10.57
Neigh   | 0.65424    | 0.69574    | 0.86308    |   5.6 |  3.60
Comm    | 0.77196    | 1.4583     | 1.6912     |  16.3 |  7.54
Output  | 10.643     | 10.925     | 15.095     |  32.6 | 56.51
Modify  | 0.031336   | 4.202      | 4.4844     |  52.5 | 21.74
Other   |            | 0.00779    |            |       |  0.04

Nlocal:    62.5 ave 67 max 57 min
Histogram: 1 0 1 2 1 4 2 0 2 3
Nghost:    1832.44 ave 1846 max 1820 min
Histogram: 1 2 1 3 2 2 2 0 2 1
Neighs:    0 ave 0 max 0 min
Histogram: 16 0 0 0 0 0 0 0 0 0
FullNghs:  18532.5 ave 19908 max 16793 min
Histogram: 1 1 0 3 2 2 2 1 2 2

Total # of neighbors = 296520
Ave neighs/atom = 296.52
Neighbor list builds = 1000
Dangerous builds not checked
Setting up Verlet run ...
  Unit style    : real
  Current step  : 2000
  Time step     : 1
Per MPI rank memory allocation (min/avg/max) = 3.771 | 4.528 | 4.58 Mbytes
Step Temp E_pair E_mol TotEng Press Volume Lx Ly Lz S/CPU 
    2000     303.4006   -10467.851            0   -9564.3755   -20095.816    796.20662    9.2684817    9.2684817    9.2684817            0 
    2100    303.91946    -10481.75            0   -9576.7297   -30747.155    795.58935    9.2660859    9.2660859    9.2660859    55.439561 
    2200    296.81681   -10472.052            0   -9588.1825   -26632.389    793.21112    9.2568437    9.2568437    9.2568437    61.096278 
    2300    295.17128    -10476.45            0   -9597.4803    13700.954    789.19048    9.2411768    9.2411768    9.2411768    61.925037 
    2400    302.13508   -10505.418            0   -9605.7118    5133.0089    784.84669    9.2241908    9.2241908    9.2241908    72.254918 
    2500    298.82384   -10503.548            0   -9613.7018    634.65506    780.61672    9.2075895    9.2075895    9.2075895    49.586954 
    2600    309.12239   -10541.578            0   -9621.0646    22118.661    777.01156     9.193393     9.193393     9.193393    65.488234 
    2700    302.76769   -10528.672            0   -9627.0815    11562.174    774.46617    9.1833433    9.1833433    9.1833433    55.443758 
    2800    302.54481   -10534.315            0   -9633.3884    20505.398    772.64899    9.1761551    9.1761551    9.1761551    57.336705 
    2900    302.34326   -10540.741            0   -9640.4142    14676.792    771.60687    9.1720278    9.1720278    9.1720278    59.201076 
    3000    285.71235   -10495.393            0     -9644.59    15484.915    771.76777    9.1726653    9.1726653    9.1726653    60.304094 
Loop time of 16.8782 on 16 procs for 1000 steps with 1000 atoms

Performance: 5.119 ns/day, 4.688 hours/ns, 59.248 timesteps/s
95.0% CPU use with 16 MPI tasks x no OpenMP threads

MPI task timing breakdown:
Section |  min time  |  avg time  |  max time  |%varavg| %total
---------------------------------------------------------------
Pair    | 1.9111     | 2.0454     | 2.4844     |   8.8 | 12.12
Neigh   | 0.66338    | 0.69675    | 0.85509    |   5.2 |  4.13
Comm    | 0.84401    | 1.4416     | 1.6096     |  14.1 |  8.54
Output  | 8.8435     | 9.0858     | 12.654     |  30.6 | 53.83
Modify  | 0.032308   | 3.6008     | 3.8436     |  48.6 | 21.33
Other   |            | 0.007784   |            |       |  0.05

Nlocal:    62.5 ave 67 max 58 min
Histogram: 1 0 3 2 3 2 1 1 2 1
Nghost:    1870.69 ave 1899 max 1843 min
Histogram: 1 2 0 2 4 1 2 2 1 1
Neighs:    0 ave 0 max 0 min
Histogram: 16 0 0 0 0 0 0 0 0 0
FullNghs:  19120.1 ave 20646 max 17576 min
Histogram: 1 0 3 2 3 2 1 1 2 1

Total # of neighbors = 305922
Ave neighs/atom = 305.922
Neighbor list builds = 1000
Dangerous builds not checked
Setting up Verlet run ...
  Unit style    : real
  Current step  : 3000
  Time step     : 1
Per MPI rank memory allocation (min/avg/max) = 4.578 | 4.579 | 4.58 Mbytes
Step Temp E_pair E_mol TotEng Press Volume Lx Ly Lz S/CPU 
    3000    285.71235   -10495.393            0     -9644.59    15484.915    771.76777    9.1726653    9.1726653    9.1726653            0 
    3100    307.24519   -10566.395            0   -9651.4717   -222.98262    772.61714     9.176029     9.176029     9.176029    51.007725 
    3200    288.18204   -10513.111            0   -9654.9537     881.3333    773.80469     9.180728     9.180728     9.180728    43.574316 
    3300    289.42997   -10519.302            0   -9657.4288   -9527.5622    774.70771    9.1842978    9.1842978    9.1842978    69.384863 
    3400    298.85201   -10548.568            0   -9658.6373   -258.44819    775.08315    9.1857812    9.1857812    9.1857812      52.5379 
    3500    307.54905   -10576.971            0   -9661.1424    14755.792    775.58404    9.1877596    9.1877596    9.1877596    64.038689 
    3600     288.3045   -10519.353            0    -9660.831    8693.5609    776.51666    9.1914407    9.1914407    9.1914407    49.537503 
    3700    293.64803   -10533.094            0   -9658.6607   -947.66827    777.90734    9.1969245    9.1969245    9.1969245     56.53491 
    3800    285.86069   -10504.783            0   -9653.5387    7247.6121    779.32765    9.2025184    9.2025184    9.2025184    63.128037 
    3900    293.00361   -10519.471            0   -9646.9568    4599.1696    780.54982    9.2073265    9.2073265    9.2073265    58.199095 
    4000     294.5538   -10517.231            0   -9640.1006   -17541.687    781.67409     9.211745     9.211745     9.211745    46.689644 
Loop time of 18.3932 on 16 procs for 1000 steps with 1000 atoms

Performance: 4.697 ns/day, 5.109 hours/ns, 54.368 timesteps/s
95.0% CPU use with 16 MPI tasks x no OpenMP threads

MPI task timing breakdown:
Section |  min time  |  avg time  |  max time  |%varavg| %total
---------------------------------------------------------------
Pair    | 1.905      | 2.0779     | 2.8323     |  14.3 | 11.30
Neigh   | 0.66241    | 0.6987     | 0.90797    |   6.7 |  3.80
Comm    | 0.55438    | 1.5176     | 1.7264     |  21.2 |  8.25
Output  | 9.9208     | 10.184     | 14.061     |  31.4 | 55.37
Modify  | 0.028533   | 3.9076     | 4.1708     |  50.7 | 21.24
Other   |            | 0.007822   |            |       |  0.04

Nlocal:    62.5 ave 66 max 57 min
Histogram: 1 0 0 2 2 4 0 3 3 1
Nghost:    1851.62 ave 1862 max 1838 min
Histogram: 2 0 0 1 0 7 2 0 3 1
Neighs:    0 ave 0 max 0 min
Histogram: 16 0 0 0 0 0 0 0 0 0
FullNghs:  18877 ave 20031 max 17233 min
Histogram: 1 0 2 1 3 2 0 2 3 2

Total # of neighbors = 302032
Ave neighs/atom = 302.032
Neighbor list builds = 1000
Dangerous builds not checked
Setting up Verlet run ...
  Unit style    : real
  Current step  : 4000
  Time step     : 1
Per MPI rank memory allocation (min/avg/max) = 4.578 | 4.579 | 4.58 Mbytes
Step Temp E_pair E_mol TotEng Press Volume Lx Ly Lz S/CPU 
    4000     294.5538   -10517.231            0   -9640.1006   -17541.687    781.67409     9.211745     9.211745     9.211745            0 
    4100    289.85249   -10495.189            0   -9632.0579   -9632.7678    782.23676    9.2139547    9.2139547    9.2139547    65.420921 
    4200    300.39252   -10518.234            0    -9623.716   -11389.218    782.62307    9.2154712    9.2154712    9.2154712    57.664621 
    4300    302.10228   -10514.886            0   -9615.2767    10874.945    782.76066    9.2160113    9.2160113    9.2160113    64.706958 
    4400    305.08924   -10515.472            0   -9606.9683    -12983.73    782.79448     9.216144     9.216144     9.216144    57.864585 
    4500    293.34012   -10471.652            0   -9598.1349    5883.7611    782.49138    9.2149543    9.2149543    9.2149543    68.062541 
    4600     294.4611   -10466.456            0   -9589.6014    1086.0532    782.21622    9.2138741    9.2138741    9.2138741    47.521441 
    4700    303.21318   -10486.692            0   -9583.7747    219.62302    782.07613     9.213324     9.213324     9.213324    58.308869 
    4800    310.42005   -10503.713            0   -9579.3354    1590.6415    782.17246    9.2137022    9.2137022    9.2137022    65.132987 
    4900    306.36397   -10487.518            0   -9575.2188    6376.0511    783.01247    9.2169994    9.2169994    9.2169994    70.477943 
    5000    317.95112   -10519.971            0    -9573.167     13168.64    784.37888    9.2223577    9.2223577    9.2223577    41.414151 
Loop time of 17.1938 on 16 procs for 1000 steps with 1000 atoms

Performance: 5.025 ns/day, 4.776 hours/ns, 58.161 timesteps/s
95.0% CPU use with 16 MPI tasks x no OpenMP threads

MPI task timing breakdown:
Section |  min time  |  avg time  |  max time  |%varavg| %total
---------------------------------------------------------------
Pair    | 1.8681     | 2.0576     | 2.717      |  13.3 | 11.97
Neigh   | 0.6493     | 0.70031    | 0.88429    |   6.3 |  4.07
Comm    | 0.61444    | 1.4575     | 1.6984     |  20.2 |  8.48
Output  | 8.8203     | 9.0818     | 12.939     |  33.0 | 52.82
Modify  | 0.030412   | 3.8888     | 4.1505     |  50.5 | 22.62
Other   |            | 0.007799   |            |       |  0.05

Nlocal:    62.5 ave 66 max 56 min
Histogram: 1 0 1 0 3 0 0 3 4 4
Nghost:    1851.31 ave 1865 max 1835 min
Histogram: 1 2 2 0 0 1 4 4 1 1
Neighs:    0 ave 0 max 0 min
Histogram: 16 0 0 0 0 0 0 0 0 0
FullNghs:  18817.8 ave 19948 max 16800 min
Histogram: 1 0 1 3 0 0 2 4 1 4

Total # of neighbors = 301084
Ave neighs/atom = 301.084
Neighbor list builds = 1000
Dangerous builds not checked
Setting up Verlet run ...
  Unit style    : real
  Current step  : 5000
  Time step     : 1
Per MPI rank memory allocation (min/avg/max) = 4.578 | 4.579 | 4.58 Mbytes
Step Temp E_pair E_mol TotEng Press Volume Lx Ly Lz S/CPU 
    5000    317.95112   -10519.971            0    -9573.167     13168.64    784.37888    9.2223577    9.2223577    9.2223577            0 
    5100    309.23711   -10492.771            0   -9571.9161    21545.071    786.22904    9.2296031    9.2296031    9.2296031    50.638212 
    5200    310.29344   -10498.289            0   -9574.2879   -11247.028    788.49975    9.2384799    9.2384799    9.2384799    38.346645 
    5300    309.40324   -10498.655            0   -9577.3045   -6702.5707    790.43943    9.2460492    9.2460492    9.2460492    66.519907 
    5400    302.35077   -10482.052            0   -9581.7033   -7035.6468    791.95296    9.2519469    9.2519469    9.2519469    51.182945 
    5500    309.20534   -10509.054            0    -9588.293   -8502.9191    792.58231     9.254397     9.254397     9.254397    64.342469 
    5600    315.33112   -10537.859            0    -9598.857   -9022.6168    792.11116    9.2525629    9.2525629    9.2525629    50.305901 
    5700    298.34552    -10496.63            0   -9608.2081   -1696.4127    790.84597     9.247634     9.247634     9.247634       43.311 
    5800    298.00672   -10508.145            0   -9620.7319    -20402.06    789.03833    9.2405829    9.2405829    9.2405829    56.689402 
    5900    299.89063   -10524.655            0   -9631.6316   -15047.767    786.49787    9.2306549    9.2306549    9.2306549    58.643691 
    6000    290.66701    -10507.76            0   -9642.2035   -15463.949     783.0686    9.2172196    9.2172196    9.2172196    67.245549 
Loop time of 18.8469 on 16 procs for 1000 steps with 1000 atoms

Performance: 4.584 ns/day, 5.235 hours/ns, 53.059 timesteps/s
94.9% CPU use with 16 MPI tasks x no OpenMP threads

MPI task timing breakdown:
Section |  min time  |  avg time  |  max time  |%varavg| %total
---------------------------------------------------------------
Pair    | 1.8119     | 2.0127     | 2.5806     |  11.8 | 10.68
Neigh   | 0.6424     | 0.69538    | 0.86328    |   5.9 |  3.69
Comm    | 0.73492    | 1.4704     | 1.7245     |  17.8 |  7.80
Output  | 9.5544     | 9.8753     | 14.622     |  39.0 | 52.40
Modify  | 0.037009   | 4.7853     | 5.1067     |  56.0 | 25.39
Other   |            | 0.007778   |            |       |  0.04

Nlocal:    62.5 ave 67 max 59 min
Histogram: 3 1 2 1 0 3 3 1 1 1
Nghost:    1860.75 ave 1880 max 1840 min
Histogram: 1 1 1 3 2 3 0 1 2 2
Neighs:    0 ave 0 max 0 min
Histogram: 16 0 0 0 0 0 0 0 0 0
FullNghs:  18852.2 ave 20201 max 17734 min
Histogram: 3 1 1 2 2 1 3 0 1 2

Total # of neighbors = 301636
Ave neighs/atom = 301.636
Neighbor list builds = 1000
Dangerous builds not checked
Setting up Verlet run ...
  Unit style    : real
  Current step  : 6000
  Time step     : 1
Per MPI rank memory allocation (min/avg/max) = 4.578 | 4.579 | 4.58 Mbytes
Step Temp E_pair E_mol TotEng Press Volume Lx Ly Lz S/CPU 
    6000    290.66701    -10507.76            0   -9642.2035   -15463.949     783.0686    9.2172196    9.2172196    9.2172196            0 
    6100    298.74496   -10539.499            0   -9649.8875   -1385.9554    778.92608    9.2009375    9.2009375    9.2009375    43.545814 
    6200    289.11934   -10514.463            0   -9653.5152    6550.6681    774.86278    9.1849106    9.1849106    9.1849106    44.922565 
    6300    293.31915   -10529.841            0   -9656.3865    2193.7893    771.44125    9.1713715    9.1713715    9.1713715    63.130443 
    6400    292.96605   -10528.477            0   -9656.0738    8454.5411    768.71381    9.1605502    9.1605502    9.1605502    52.558684 
    6500     282.7449   -10497.258            0   -9655.2917     30358.93    766.73413    9.1526797    9.1526797    9.1526797    57.581661 
    6600    298.68623   -10544.026            0   -9654.5893    6495.4841    766.11712    9.1502239    9.1502239    9.1502239     47.32866 
    6700    297.81194   -10539.938            0   -9653.1049    30380.653    766.45702    9.1515769    9.1515769    9.1515769    62.569645 
    6800    301.14537   -10548.862            0    -9652.103    15192.503    768.08893    9.1580674    9.1580674    9.1580674    49.531915 
    6900    291.21976   -10517.569            0   -9650.3662    10261.024    771.15416    9.1702337    9.1702337    9.1702337    45.907394 
    7000    289.25562   -10510.923            0   -9649.5691    15896.555    774.87704    9.1849669    9.1849669    9.1849669    50.636345 
Loop time of 19.629 on 16 procs for 1000 steps with 1000 atoms

Performance: 4.402 ns/day, 5.453 hours/ns, 50.945 timesteps/s
94.8% CPU use with 16 MPI tasks x no OpenMP threads

MPI task timing breakdown:
Section |  min time  |  avg time  |  max time  |%varavg| %total
---------------------------------------------------------------
Pair    | 1.9691     | 2.1309     | 2.6607     |  10.8 | 10.86
Neigh   | 0.65266    | 0.7067     | 0.88195    |   6.0 |  3.60
Comm    | 0.80193    | 1.5079     | 1.725      |  16.9 |  7.68
Output  | 10.702     | 10.99      | 15.243     |  33.1 | 55.99
Modify  | 0.032327   | 4.2858     | 4.575      |  53.0 | 21.83
Other   |            | 0.007911   |            |       |  0.04

Nlocal:    62.5 ave 67 max 54 min
Histogram: 1 0 0 2 0 3 3 1 3 3
Nghost:    1882.56 ave 1891 max 1872 min
Histogram: 2 2 1 0 0 1 3 3 2 2
Neighs:    0 ave 0 max 0 min
Histogram: 16 0 0 0 0 0 0 0 0 0
FullNghs:  19035.1 ave 20508 max 16240 min
Histogram: 1 0 1 1 0 4 0 2 4 3

Total # of neighbors = 304562
Ave neighs/atom = 304.562
Neighbor list builds = 1000
Dangerous builds not checked
Setting up Verlet run ...
  Unit style    : real
  Current step  : 7000
  Time step     : 1
Per MPI rank memory allocation (min/avg/max) = 4.578 | 4.579 | 4.58 Mbytes
Step Temp E_pair E_mol TotEng Press Volume Lx Ly Lz S/CPU 
    7000    289.25562   -10510.923            0   -9649.5691    15896.555    774.87704    9.1849669    9.1849669    9.1849669            0 
    7100    302.80106   -10547.545            0   -9645.8551   -2709.3879    778.58431    9.1995916    9.1995916    9.1995916    53.316072 
    7200    295.32092   -10521.254            0   -9641.8384   -8132.4875    781.90205    9.2126404    9.2126404    9.2126404     59.25654 
    7300    295.16536   -10516.003            0   -9637.0506     12449.93    784.66083    9.2234626    9.2234626    9.2234626    60.246012 
    7400    295.99434   -10515.009            0   -9633.5884   -2895.5435    787.20504    9.2334207    9.2334207    9.2334207    53.746634 
    7500    303.20244   -10532.688            0   -9629.8026   -24957.032    789.19981    9.2412132    9.2412132    9.2412132     62.17924 
    7600    300.58349   -10521.155            0   -9626.0689   -1327.5787    790.14302    9.2448933    9.2448933    9.2448933    57.484044 
    7700    303.46121   -10526.985            0   -9623.3292   -3766.8857    790.71755    9.2471335    9.2471335    9.2471335    68.930371 
    7800    297.32198    -10505.14            0   -9619.7659   -14882.405    790.69242    9.2470355    9.2470355    9.2470355    57.176935 
    7900    296.48181   -10500.942            0   -9618.0698   -10764.759    789.66351    9.2430228    9.2430228    9.2430228    72.703524 
    8000    306.45607   -10529.213            0   -9616.6388    125.81694    787.72824    9.2354658    9.2354658    9.2354658    57.468871 
Loop time of 16.7468 on 16 procs for 1000 steps with 1000 atoms

Performance: 5.159 ns/day, 4.652 hours/ns, 59.713 timesteps/s
94.9% CPU use with 16 MPI tasks x no OpenMP threads

MPI task timing breakdown:
Section |  min time  |  avg time  |  max time  |%varavg| %total
---------------------------------------------------------------
Pair    | 1.9279     | 2.029      | 2.5245     |   9.5 | 12.12
Neigh   | 0.66875    | 0.69742    | 0.86921    |   5.5 |  4.16
Comm    | 0.75238    | 1.4201     | 1.5481     |  15.2 |  8.48
Output  | 8.5652     | 8.8185     | 12.553     |  32.5 | 52.66
Modify  | 0.038507   | 3.774      | 4.0285     |  49.6 | 22.54
Other   |            | 0.007829   |            |       |  0.05

Nlocal:    62.5 ave 69 max 56 min
Histogram: 1 1 2 2 1 1 5 2 0 1
Nghost:    1852.06 ave 1875 max 1831 min
Histogram: 2 0 0 3 3 4 3 0 0 1
Neighs:    0 ave 0 max 0 min
Histogram: 16 0 0 0 0 0 0 0 0 0
FullNghs:  18734.6 ave 20905 max 16692 min
Histogram: 1 1 2 1 2 5 1 2 0 1

Total # of neighbors = 299754
Ave neighs/atom = 299.754
Neighbor list builds = 1000
Dangerous builds not checked
Setting up Verlet run ...
  Unit style    : real
  Current step  : 8000
  Time step     : 1
Per MPI rank memory allocation (min/avg/max) = 4.578 | 4.579 | 4.58 Mbytes
Step Temp E_pair E_mol TotEng Press Volume Lx Ly Lz S/CPU 
    8000    306.45607   -10529.213            0   -9616.6388    125.81694    787.72824    9.2354658    9.2354658    9.2354658            0 
    8100    300.59625   -10509.158            0   -9614.0338    10984.888    785.62287    9.2272305    9.2272305    9.2272305    68.772841 
    8200    289.08563   -10471.047            0   -9610.1989    448.58372    783.79303    9.2200611    9.2200611    9.2200611    46.434018 
    8300     288.8899    -10467.72            0   -9607.4549    9138.1449    782.40568    9.2146179    9.2146179    9.2146179    67.804499 
    8400    304.74508   -10512.217            0   -9604.7386   -1103.5431    781.37434    9.2105673    9.2105673    9.2105673      61.7152 
    8500    304.62498   -10510.116            0   -9602.9949   -1822.1626    780.55771    9.2073575    9.2073575    9.2073575    65.570617 
    8600    295.92066   -10481.122            0   -9599.9206    10169.954    780.30327    9.2063569    9.2063569    9.2063569    57.437513 
    8700    296.37337   -10480.258            0   -9597.7084    5305.7565    780.68077    9.2078413    9.2078413    9.2078413    61.955888 
    8800    297.95965   -10482.986            0   -9595.7131    8172.2265    781.63138    9.2115772    9.2115772    9.2115772    47.243873 
    8900    293.59364   -10469.173            0   -9594.9009    4062.5525    782.55795    9.2152156    9.2152156    9.2152156    44.292652 
    9000    312.15125   -10525.462            0   -9595.9284   -11562.959    783.31258    9.2181768    9.2181768    9.2181768    60.726217 
Loop time of 17.6041 on 16 procs for 1000 steps with 1000 atoms

Performance: 4.908 ns/day, 4.890 hours/ns, 56.805 timesteps/s
95.0% CPU use with 16 MPI tasks x no OpenMP threads

MPI task timing breakdown:
Section |  min time  |  avg time  |  max time  |%varavg| %total
---------------------------------------------------------------
Pair    | 1.8834     | 2.0508     | 2.7386     |  13.2 | 11.65
Neigh   | 0.65376    | 0.69749    | 0.90366    |   6.7 |  3.96
Comm    | 0.58936    | 1.4832     | 1.6942     |  20.1 |  8.43
Output  | 8.5953     | 8.8955     | 13.335     |  38.4 | 50.53
Modify  | 0.028797   | 4.4693     | 4.7695     |  54.2 | 25.39
Other   |            | 0.007762   |            |       |  0.04

Nlocal:    62.5 ave 68 max 54 min
Histogram: 1 0 0 1 0 5 2 6 0 1
Nghost:    1860.06 ave 1871 max 1848 min
Histogram: 2 1 0 2 2 2 2 2 2 1
Neighs:    0 ave 0 max 0 min
Histogram: 16 0 0 0 0 0 0 0 0 0
FullNghs:  18842.1 ave 20550 max 16287 min
Histogram: 1 0 0 1 2 3 2 6 0 1

Total # of neighbors = 301474
Ave neighs/atom = 301.474
Neighbor list builds = 1000
Dangerous builds not checked
Setting up Verlet run ...
  Unit style    : real
  Current step  : 9000
  Time step     : 1
Per MPI rank memory allocation (min/avg/max) = 4.578 | 4.579 | 4.58 Mbytes
Step Temp E_pair E_mol TotEng Press Volume Lx Ly Lz S/CPU 
    9000    312.15125   -10525.462            0   -9595.9284   -11562.959    783.31258    9.2181768    9.2181768    9.2181768            0 
    9100    303.33413   -10497.787            0   -9594.5101   -3079.5068    783.83862    9.2202399    9.2202399    9.2202399    42.040468 
    9200     299.7213   -10486.571            0   -9594.0519    -4849.864    784.29827    9.2220418    9.2220418    9.2220418    64.894769 
    9300    301.21406   -10491.317            0   -9594.3525    7535.2122    784.75334    9.2238251    9.2238251    9.2238251    49.902876 
    9400    296.79855   -10477.874            0   -9594.0588    705.41387    785.31472     9.226024     9.226024     9.226024     53.84706 
    9500    297.02624   -10479.687            0   -9595.1933   -997.64183    785.60351    9.2271548    9.2271548    9.2271548    61.248288 
    9600    300.12552   -10489.287            0   -9595.5649    154.43922    785.50507    9.2267694    9.2267694    9.2267694    47.950676 
    9700    297.45408   -10482.056            0   -9596.2884   -2225.2517    785.09412      9.22516      9.22516      9.22516    62.701976 
    9800    302.68493   -10500.165            0   -9598.8213    778.04674    784.67355    9.2235124    9.2235124    9.2235124    52.595716 
    9900    302.12354   -10498.634            0   -9598.9619     9232.664    784.36768    9.2223138    9.2223138    9.2223138    44.393225 
   10000    303.39945   -10502.767            0   -9599.2949   -819.25901    784.45153    9.2226424    9.2226424    9.2226424    44.111037 
Loop time of 19.5146 on 16 procs for 1000 steps with 1000 atoms

Performance: 4.427 ns/day, 5.421 hours/ns, 51.244 timesteps/s
94.8% CPU use with 16 MPI tasks x no OpenMP threads

MPI task timing breakdown:
Section |  min time  |  avg time  |  max time  |%varavg| %total
---------------------------------------------------------------
Pair    | 1.8458     | 2.0321     | 2.7234     |  13.5 | 10.41
Neigh   | 0.64345    | 0.69653    | 0.89089    |   6.5 |  3.57
Comm    | 0.63396    | 1.5202     | 1.7589     |  20.0 |  7.79
Output  | 10.54      | 10.836     | 15.208     |  34.3 | 55.53
Modify  | 0.049578   | 4.4221     | 4.7192     |  53.7 | 22.66
Other   |            | 0.007807   |            |       |  0.04

Nlocal:    62.5 ave 67 max 57 min
Histogram: 1 0 0 4 1 4 0 1 2 3
Nghost:    1859.5 ave 1874 max 1846 min
Histogram: 2 1 3 1 1 1 3 2 0 2
Neighs:    0 ave 0 max 0 min
Histogram: 16 0 0 0 0 0 0 0 0 0
FullNghs:  18827.6 ave 20236 max 17194 min
Histogram: 1 0 3 1 4 1 0 2 2 2

Total # of neighbors = 301242
Ave neighs/atom = 301.242
Neighbor list builds = 1000
Dangerous builds not checked
Setting up Verlet run ...
  Unit style    : real
  Current step  : 10000
  Time step     : 1
Per MPI rank memory allocation (min/avg/max) = 4.578 | 4.579 | 4.58 Mbytes
Step Temp E_pair E_mol TotEng Press Volume Lx Ly Lz S/CPU 
   10000    303.39945   -10502.767            0   -9599.2949   -819.25901    784.45153    9.2226424    9.2226424    9.2226424            0 
   10100    304.50164   -10507.363            0   -9600.6095    1643.5368    784.71811     9.223687     9.223687     9.223687    46.222375 
   10200    294.86253   -10478.489            0   -9600.4386   -6991.1733    785.14657    9.2253655    9.2253655    9.2253655    61.027282 
   10300    301.87833   -10502.191            0   -9603.2487    -1183.623    785.39576    9.2263413    9.2263413    9.2263413    47.231865 
   10400    300.37777   -10499.173            0   -9604.6989   -8814.7966    785.42354    9.2264501    9.2264501    9.2264501    51.966285 
   10500    308.24133   -10525.181            0   -9607.2907    5371.9951    785.12505    9.2252812    9.2252812    9.2252812    52.819699 
   10600    289.23295   -10469.647            0   -9608.3608   -5543.8162    785.02067    9.2248723    9.2248723    9.2248723    60.352469 
   10700    295.69326   -10490.947            0   -9610.4232   -10195.167    784.67472     9.223517     9.223517     9.223517    50.943406 
   10800    291.71322   -10480.147            0   -9611.4743   -9040.2553    784.00501    9.2208922    9.2208922    9.2208922    57.178216 
   10900    299.70523   -10506.532            0   -9614.0609   -1070.2311    782.75654    9.2159951    9.2159951    9.2159951    63.566039 
   11000    288.12901   -10472.334            0   -9614.3347    -3063.929    781.14984    9.2096851    9.2096851    9.2096851    54.637035 
Loop time of 18.5091 on 16 procs for 1000 steps with 1000 atoms

Performance: 4.668 ns/day, 5.141 hours/ns, 54.027 timesteps/s
94.9% CPU use with 16 MPI tasks x no OpenMP threads

MPI task timing breakdown:
Section |  min time  |  avg time  |  max time  |%varavg| %total
---------------------------------------------------------------
Pair    | 1.8981     | 2.0342     | 2.7609     |  13.7 | 10.99
Neigh   | 0.64328    | 0.69404    | 0.90174    |   6.8 |  3.75
Comm    | 0.60897    | 1.5426     | 1.7297     |  20.3 |  8.33
Output  | 9.3089     | 9.6184     | 14.197     |  38.1 | 51.97
Modify  | 0.031966   | 4.612      | 4.922      |  55.1 | 24.92
Other   |            | 0.007762   |            |       |  0.04

Nlocal:    62.5 ave 68 max 56 min
Histogram: 1 0 1 2 1 6 1 2 1 1
Nghost:    1861.25 ave 1877 max 1842 min
Histogram: 2 1 0 1 1 3 4 1 1 2
Neighs:    0 ave 0 max 0 min
Histogram: 16 0 0 0 0 0 0 0 0 0
FullNghs:  18876.4 ave 20620 max 16833 min
Histogram: 1 0 1 2 1 5 2 2 1 1

Total # of neighbors = 302022
Ave neighs/atom = 302.022
Neighbor list builds = 1000
Dangerous builds not checked
Setting up Verlet run ...
  Unit style    : real
  Current step  : 11000
  Time step     : 1
Per MPI rank memory allocation (min/avg/max) = 4.578 | 4.579 | 4.58 Mbytes
Step Temp E_pair E_mol TotEng Press Volume Lx Ly Lz S/CPU 
   11000    288.12901   -10472.334            0   -9614.3347    -3063.929    781.14984    9.2096851    9.2096851    9.2096851            0 
   11100    298.59662   -10504.292            0   -9615.1225    13881.487    779.56142    9.2034385    9.2034385    9.2034385    60.787611 
   11200    288.13193   -10472.931            0   -9614.9229   -3653.2966    778.57365    9.1995496    9.1995496    9.1995496    55.392879 
   11300    293.57993   -10488.885            0   -9614.6538    5546.9469    777.83147    9.1966255    9.1966255    9.1966255    69.520148 
   11400     308.1244   -10533.511            0   -9615.9694    14221.564    777.50864     9.195353     9.195353     9.195353    46.814755 
   11500    298.27675   -10503.681            0   -9615.4638   -5619.2579    777.63385    9.1958466    9.1958466    9.1958466    64.402808 
   11600    300.74848    -10511.56            0   -9615.9826   -3006.3674    777.60934      9.19575      9.19575      9.19575    52.033023 
   11700    303.84066    -10521.61            0   -9616.8244    7283.3907    777.64378    9.1958858    9.1958858    9.1958858    53.593877 
   11800    304.27256   -10523.396            0   -9617.3242   -1325.5546    777.93833    9.1970467    9.1970467    9.1970467    55.759585 
   11900    284.01456   -10461.938            0   -9616.1909    13135.713     778.5858    9.1995975    9.1995975    9.1995975    49.117059 
   12000    305.31644   -10525.856            0   -9616.6758   -4259.0678    779.69879     9.203979     9.203979     9.203979    49.417778 
Loop time of 18.2183 on 16 procs for 1000 steps with 1000 atoms

Performance: 4.742 ns/day, 5.061 hours/ns, 54.890 timesteps/s
95.0% CPU use with 16 MPI tasks x no OpenMP threads

MPI task timing breakdown:
Section |  min time  |  avg time  |  max time  |%varavg| %total
---------------------------------------------------------------
Pair    | 1.9099     | 2.07       | 2.7257     |  13.2 | 11.36
Neigh   | 0.65189    | 0.69951    | 0.88926    |   6.3 |  3.84
Comm    | 0.68954    | 1.5346     | 1.7425     |  19.5 |  8.42
Output  | 9.2246     | 9.5191     | 13.873     |  36.4 | 52.25
Modify  | 0.031562   | 4.3872     | 4.682      |  53.7 | 24.08
Other   |            | 0.007866   |            |       |  0.04

Nlocal:    62.5 ave 66 max 58 min
Histogram: 1 1 1 3 0 1 3 2 3 1
Nghost:    1873.25 ave 1895 max 1850 min
Histogram: 2 1 1 2 1 1 2 3 2 1
Neighs:    0 ave 0 max 0 min
Histogram: 16 0 0 0 0 0 0 0 0 0
FullNghs:  18923.6 ave 20046 max 17275 min
Histogram: 1 1 1 1 1 2 3 2 2 2

Total # of neighbors = 302778
Ave neighs/atom = 302.778
Neighbor list builds = 1000
Dangerous builds not checked
Setting up Verlet run ...
  Unit style    : real
  Current step  : 12000
  Time step     : 1
Per MPI rank memory allocation (min/avg/max) = 4.578 | 4.579 | 4.58 Mbytes
Step Temp E_pair E_mol TotEng Press Volume Lx Ly Lz S/CPU 
   12000    305.31644   -10525.856            0   -9616.6758   -4259.0678    779.69879     9.203979     9.203979     9.203979            0 
   12100    291.77721   -10484.336            0   -9615.4729   -3975.1395    781.04873    9.2092878    9.2092878    9.2092878    54.829829 
   12200    293.64382   -10488.541            0   -9614.1194    403.37893    781.98436    9.2129636    9.2129636    9.2129636    63.964721 
   12300    301.64993   -10512.343            0   -9614.0815    -19154.29    782.49483    9.2149679    9.2149679    9.2149679    57.735836 
   12400    290.10913    -10476.71            0   -9612.8144   -11943.379    782.63216    9.2155069    9.2155069    9.2155069     62.86554 
   12500    299.88251   -10505.522            0   -9612.5229   -5781.3785    782.35975    9.2144376    9.2144376    9.2144376    46.813587 
   12600    295.84166   -10492.435            0   -9611.4689    4341.7768    781.70853    9.2118802    9.2118802    9.2118802    51.786575 
   12700    300.35717   -10505.667            0   -9611.2549   -7602.6657    780.88256    9.2086346    9.2086346    9.2086346    46.017018 
   12800    305.00957   -10517.653            0   -9609.3864    2658.2154    779.99511    9.2051448    9.2051448    9.2051448    51.869982 
   12900    292.40995   -10476.751            0   -9606.0039   -1828.3675    779.14283    9.2017909    9.2017909    9.2017909    58.292154 
   13000     298.5355   -10493.407            0    -9604.419    10381.671    777.85671     9.196725     9.196725     9.196725    45.137714 
Loop time of 18.809 on 16 procs for 1000 steps with 1000 atoms

Performance: 4.594 ns/day, 5.225 hours/ns, 53.166 timesteps/s
94.8% CPU use with 16 MPI tasks x no OpenMP threads

MPI task timing breakdown:
Section |  min time  |  avg time  |  max time  |%varavg| %total
---------------------------------------------------------------
Pair    | 1.8826     | 2.0678     | 2.5522     |  10.8 | 10.99
Neigh   | 0.65644    | 0.70125    | 0.85195    |   5.3 |  3.73
Comm    | 0.87225    | 1.509      | 1.7332     |  16.2 |  8.02
Output  | 10.015     | 10.297     | 14.466     |  33.5 | 54.75
Modify  | 0.058298   | 4.2258     | 4.5115     |  52.3 | 22.47
Other   |            | 0.007852   |            |       |  0.04

Nlocal:    62.5 ave 69 max 58 min
Histogram: 4 1 1 1 4 1 1 2 0 1
Nghost:    1865.5 ave 1884 max 1849 min
Histogram: 5 0 1 1 1 1 2 1 2 2
Neighs:    0 ave 0 max 0 min
Histogram: 16 0 0 0 0 0 0 0 0 0
FullNghs:  18974.8 ave 21030 max 17457 min
Histogram: 2 2 1 2 4 1 1 2 0 1

Total # of neighbors = 303596
Ave neighs/atom = 303.596
Neighbor list builds = 1000
Dangerous builds not checked
Setting up Verlet run ...
  Unit style    : real
  Current step  : 13000
  Time step     : 1
Per MPI rank memory allocation (min/avg/max) = 4.578 | 4.579 | 4.58 Mbytes
Step Temp E_pair E_mol TotEng Press Volume Lx Ly Lz S/CPU 
   13000     298.5355   -10493.407            0    -9604.419    10381.671    777.85671     9.196725     9.196725     9.196725            0 
   13100    296.97019   -10483.704            0    -9599.378    13140.847    776.80393    9.1925741    9.1925741    9.1925741    62.622444 
   13200     301.8442   -10494.049            0   -9595.2088     13761.51    776.41713    9.1910481    9.1910481    9.1910481    53.150982 
   13300    305.22764   -10500.776            0   -9591.8606    24884.151    777.04974    9.1935436    9.1935436    9.1935436    58.008976 
   13400    307.85002   -10505.633            0   -9588.9079    13703.406    778.68924    9.2000049    9.2000049    9.2000049     56.84578 
   13500    308.90466   -10506.625            0   -9586.7599    12370.138    781.34813    9.2104643    9.2104643    9.2104643    51.635199 
   13600     319.8181   -10536.973            0   -9584.6088   -3833.6926     784.7808    9.2239326    9.2239326    9.2239326    64.148922 
   13700    295.64535   -10463.428            0   -9583.0468   -271.06976    788.27938    9.2376192    9.2376192    9.2376192    56.418289 
   13800    290.90265   -10448.253            0   -9581.9946   -9082.6278    791.57322    9.2504678    9.2504678    9.2504678    63.741129 
   13900    299.06853   -10472.423            0   -9581.8481   -14243.831     793.6899    9.2587058    9.2587058    9.2587058    43.450145 
   14000    306.49061   -10497.433            0   -9584.7561   -7424.3627    794.34721     9.261261     9.261261     9.261261     58.60505 
Loop time of 17.806 on 16 procs for 1000 steps with 1000 atoms

Performance: 4.852 ns/day, 4.946 hours/ns, 56.161 timesteps/s
95.0% CPU use with 16 MPI tasks x no OpenMP threads

MPI task timing breakdown:
Section |  min time  |  avg time  |  max time  |%varavg| %total
---------------------------------------------------------------
Pair    | 1.853      | 2.0469     | 2.5862     |  11.3 | 11.50
Neigh   | 0.65058    | 0.69812    | 0.86253    |   5.8 |  3.92
Comm    | 0.75115    | 1.455      | 1.6958     |  17.4 |  8.17
Output  | 9.0406     | 9.3276     | 13.568     |  35.8 | 52.38
Modify  | 0.029554   | 4.2705     | 4.5574     |  53.0 | 23.98
Other   |            | 0.007833   |            |       |  0.04

Nlocal:    62.5 ave 66 max 59 min
Histogram: 1 2 2 0 4 2 0 2 1 2
Nghost:    1843.75 ave 1861 max 1830 min
Histogram: 4 2 0 1 2 2 1 1 1 2
Neighs:    0 ave 0 max 0 min
Histogram: 16 0 0 0 0 0 0 0 0 0
FullNghs:  18581.4 ave 19853 max 17333 min
Histogram: 1 1 2 0 5 2 1 1 2 1

Total # of neighbors = 297302
Ave neighs/atom = 297.302
Neighbor list builds = 1000
Dangerous builds not checked
Setting up Verlet run ...
  Unit style    : real
  Current step  : 14000
  Time step     : 1
Per MPI rank memory allocation (min/avg/max) = 4.578 | 4.579 | 4.58 Mbytes
Step Temp E_pair E_mol TotEng Press Volume Lx Ly Lz S/CPU 
   14000    306.49061   -10497.433            0   -9584.7561   -7424.3627    794.34721     9.261261     9.261261     9.261261            0 
   14100    295.44262       -10468            0   -9588.2224   -11581.846    793.44595    9.2577571    9.2577571    9.2577571    60.716615 
   14200    293.62385   -10467.247            0   -9592.8852   -10384.824    791.24141    9.2491751    9.2491751    9.2491751    48.952669 
   14300    307.12006   -10514.291            0   -9599.7395   -6056.5565    788.07934    9.2368377    9.2368377    9.2368377    75.274188 
   14400    307.46108   -10523.623            0   -9608.0565    6290.8547    784.25842    9.2218856    9.2218856    9.2218856    51.347462 
   14500    305.44931   -10527.224            0   -9617.6486    19618.412    780.36797    9.2066114    9.2066114    9.2066114        55.12 
   14600    300.14062   -10520.836            0   -9627.0685    21082.406    777.50074    9.1953219    9.1953219    9.1953219    61.606927 
   14700    294.03461   -10513.151            0   -9637.5656    11718.373    775.96459     9.189262     9.189262     9.189262    56.944665 
   14800    306.05757   -10560.443            0   -9649.0563    15307.502     775.4622    9.1872784    9.1872784    9.1872784    67.353661 
   14900    295.78028   -10538.431            0   -9657.6481    11814.148     775.9018    9.1890141    9.1890141    9.1890141    56.383411 
   15000    302.46409   -10566.058            0   -9665.3719    7053.9278    777.15956    9.1939767    9.1939767    9.1939767    58.620472 
Loop time of 17.1235 on 16 procs for 1000 steps with 1000 atoms

Performance: 5.046 ns/day, 4.757 hours/ns, 58.399 timesteps/s
95.0% CPU use with 16 MPI tasks x no OpenMP threads

MPI task timing breakdown:
Section |  min time  |  avg time  |  max time  |%varavg| %total
---------------------------------------------------------------
Pair    | 1.8777     | 2.0302     | 2.5094     |   9.9 | 11.86
Neigh   | 0.64961    | 0.69394    | 0.84283    |   5.1 |  4.05
Comm    | 0.85487    | 1.4829     | 1.6801     |  15.0 |  8.66
Output  | 8.7459     | 9.008      | 12.876     |  33.3 | 52.61
Modify  | 0.032197   | 3.9006     | 4.163      |  50.6 | 22.78
Other   |            | 0.007776   |            |       |  0.05

Nlocal:    62.5 ave 68 max 56 min
Histogram: 1 0 2 1 1 5 1 3 1 1
Nghost:    1864.25 ave 1880 max 1836 min
Histogram: 1 0 1 0 1 3 4 1 3 2
Neighs:    0 ave 0 max 0 min
Histogram: 16 0 0 0 0 0 0 0 0 0
FullNghs:  18978.8 ave 20899 max 16739 min
Histogram: 1 0 2 2 1 3 3 2 1 1

Total # of neighbors = 303660
Ave neighs/atom = 303.66
Neighbor list builds = 1000
Dangerous builds not checked
Setting up Verlet run ...
  Unit style    : real
  Current step  : 15000
  Time step     : 1
Per MPI rank memory allocation (min/avg/max) = 4.578 | 4.579 | 4.58 Mbytes
Step Temp E_pair E_mol TotEng Press Volume Lx Ly Lz S/CPU 
   15000    302.46409   -10566.058            0   -9665.3719    7053.9278    777.15956    9.1939767    9.1939767    9.1939767            0 
   15100     299.2107   -10561.575            0   -9670.5767   -1941.5157    778.74773    9.2002352    9.2002352    9.2002352    55.390077 
   15200     305.8318   -10586.378            0   -9675.6627    10716.302    780.41231    9.2067857    9.2067857    9.2067857    51.903559 
   15300    285.68954   -10527.752            0   -9677.0174    10864.193    782.13623      9.21356      9.21356      9.21356    51.459683 
   15400    285.77078   -10529.357            0   -9678.3806   -4084.4396    783.65281    9.2195113    9.2195113    9.2195113    50.360118 
   15500    294.06118   -10553.558            0   -9677.8943    5066.6768     784.7486    9.2238065    9.2238065    9.2238065    65.471622 
   15600    295.43563   -10553.462            0   -9673.7052   -3712.0676    785.57425    9.2270402    9.2270402    9.2270402    56.749299 
   15700    308.16038   -10587.477            0   -9669.8284    1904.6229    785.79981    9.2279232    9.2279232    9.2279232    64.017769 
   15800    304.03533   -10569.192            0   -9663.8264   -2729.7844    785.79195    9.2278925    9.2278925    9.2278925    53.956849 
   15900    296.43464   -10539.086            0   -9656.3539     11587.86    785.59187    9.2271092    9.2271092    9.2271092    48.870955 
   16000    300.44449   -10542.629            0   -9647.9567   -5849.3306    785.05272    9.2249978    9.2249978    9.2249978    45.790157 
Loop time of 18.596 on 16 procs for 1000 steps with 1000 atoms

Performance: 4.646 ns/day, 5.166 hours/ns, 53.775 timesteps/s
94.9% CPU use with 16 MPI tasks x no OpenMP threads

MPI task timing breakdown:
Section |  min time  |  avg time  |  max time  |%varavg| %total
---------------------------------------------------------------
Pair    | 1.868      | 2.0333     | 2.6446     |  12.2 | 10.93
Neigh   | 0.65421    | 0.69607    | 0.88082    |   6.2 |  3.74
Comm    | 0.67971    | 1.4755     | 1.6779     |  18.5 |  7.93
Output  | 9.6775     | 9.9735     | 14.346     |  35.8 | 53.63
Modify  | 0.035679   | 4.4099     | 4.7065     |  53.8 | 23.71
Other   |            | 0.007775   |            |       |  0.04

Nlocal:    62.5 ave 68 max 57 min
Histogram: 1 3 1 1 1 2 3 2 0 2
Nghost:    1852.94 ave 1871 max 1836 min
Histogram: 2 1 1 2 3 0 3 2 1 1
Neighs:    0 ave 0 max 0 min
Histogram: 16 0 0 0 0 0 0 0 0 0
FullNghs:  18787.9 ave 20563 max 17145 min
Histogram: 1 3 1 1 2 2 2 2 1 1

Total # of neighbors = 300606
Ave neighs/atom = 300.606
Neighbor list builds = 1000
Dangerous builds not checked
Setting up Verlet run ...
  Unit style    : real
  Current step  : 16000
  Time step     : 1
Per MPI rank memory allocation (min/avg/max) = 4.578 | 4.579 | 4.58 Mbytes
Step Temp E_pair E_mol TotEng Press Volume Lx Ly Lz S/CPU 
   16000    300.44449   -10542.629            0   -9647.9567   -5849.3306    785.05272    9.2249978    9.2249978    9.2249978            0 
   16100    306.68297   -10552.673            0    -9639.423   -7062.3172    784.40654    9.2224661    9.2224661    9.2224661    61.900631 
   16200    300.62909   -10523.473            0   -9628.2506   -6052.4188    783.56432    9.2191642    9.2191642    9.2191642    40.976956 
   16300    295.96554   -10497.888            0   -9616.5533    430.80559    782.65305    9.2155889    9.2155889    9.2155889    57.555688 
   16400    301.43557   -10503.329            0   -9605.7054   -2347.6845    782.11116    9.2134616    9.2134616    9.2134616    59.474645 
   16500    306.76272   -10508.824            0   -9595.3372    8875.0635     782.1317    9.2135422    9.2135422    9.2135422    57.054724 
   16600    293.27343   -10461.768            0   -9588.4494    6016.3352    782.78232    9.2160963    9.2160963    9.2160963    55.029052 
   16700    298.87774   -10474.008            0   -9584.0009   -1600.3774    783.60063    9.2193066    9.2193066    9.2193066    52.660272 
   16800    292.72828   -10453.373            0    -9581.678    6713.0962    784.00654    9.2208982    9.2208982    9.2208982    60.102597 
   16900    307.16239   -10497.012            0   -9582.3347   -3139.5228    784.07555    9.2211688    9.2211688    9.2211688    54.212802 
   17000    297.46647   -10466.957            0   -9581.1531    12663.705    783.98324    9.2208069    9.2208069    9.2208069    61.886449 
Loop time of 18.0679 on 16 procs for 1000 steps with 1000 atoms

Performance: 4.782 ns/day, 5.019 hours/ns, 55.347 timesteps/s
95.0% CPU use with 16 MPI tasks x no OpenMP threads

MPI task timing breakdown:
Section |  min time  |  avg time  |  max time  |%varavg| %total
---------------------------------------------------------------
Pair    | 1.8766     | 2.0423     | 2.6452     |  11.7 | 11.30
Neigh   | 0.64758    | 0.69779    | 0.8844     |   6.2 |  3.86
Comm    | 0.69679    | 1.4862     | 1.7022     |  18.0 |  8.23
Output  | 9.0863     | 9.3852     | 13.804     |  37.2 | 51.94
Modify  | 0.028994   | 4.4487     | 4.7481     |  54.1 | 24.62
Other   |            | 0.007794   |            |       |  0.04

Nlocal:    62.5 ave 71 max 58 min
Histogram: 3 2 2 3 3 1 1 0 0 1
Nghost:    1865.81 ave 1889 max 1838 min
Histogram: 2 2 1 1 0 3 0 2 1 4
Neighs:    0 ave 0 max 0 min
Histogram: 16 0 0 0 0 0 0 0 0 0
FullNghs:  18832.9 ave 21405 max 17265 min
Histogram: 3 1 3 1 4 2 1 0 0 1

Total # of neighbors = 301326
Ave neighs/atom = 301.326
Neighbor list builds = 1000
Dangerous builds not checked
Setting up Verlet run ...
  Unit style    : real
  Current step  : 17000
  Time step     : 1
Per MPI rank memory allocation (min/avg/max) = 4.578 | 4.579 | 4.58 Mbytes
Step Temp E_pair E_mol TotEng Press Volume Lx Ly Lz S/CPU 
   17000    297.46647   -10466.957            0   -9581.1531    12663.705    783.98324    9.2208069    9.2208069    9.2208069            0 
   17100    300.34993   -10476.159            0   -9581.7684    9143.0888    784.33775    9.2221965    9.2221965    9.2221965    56.404663 
   17200    291.99025   -10451.645            0   -9582.1483   -2112.5197    784.78731    9.2239582    9.2239582    9.2239582    60.137205 
   17300    299.56576   -10476.947            0   -9584.8917    -13133.55    784.84548     9.224186     9.224186     9.224186    54.917112 
   17400    294.30926   -10462.356            0   -9585.9535   -9334.1847    784.14301    9.2214332    9.2214332    9.2214332    74.860789 
   17500    307.22848    -10504.41            0   -9589.5362    130.39502    782.46242    9.2148407    9.2148407    9.2148407    53.707404 
   17600    307.17596   -10506.365            0   -9591.6478   -15630.645    780.00374    9.2051788    9.2051788    9.2051788    69.724663 
   17700    309.26814    -10514.62            0   -9593.6728    10259.897    777.13987     9.193899     9.193899     9.193899    45.379739 
   17800    312.35556   -10526.744            0   -9596.6027    13715.839    775.12018    9.1859275    9.1859275    9.1859275    55.332385 
   17900    309.68133   -10523.789            0   -9601.6114    4346.7053    774.21742    9.1823599    9.1823599    9.1823599    51.211135 
   18000    313.10793   -10542.111            0   -9609.7292    580.55887    774.01131     9.181545     9.181545     9.181545    47.245328 
Loop time of 17.9689 on 16 procs for 1000 steps with 1000 atoms

Performance: 4.808 ns/day, 4.991 hours/ns, 55.652 timesteps/s
95.0% CPU use with 16 MPI tasks x no OpenMP threads

MPI task timing breakdown:
Section |  min time  |  avg time  |  max time  |%varavg| %total
---------------------------------------------------------------
Pair    | 1.9296     | 2.0585     | 2.7286     |  12.9 | 11.46
Neigh   | 0.66812    | 0.69738    | 0.8999     |   6.5 |  3.88
Comm    | 0.61017    | 1.4829     | 1.6409     |  19.7 |  8.25
Output  | 9.0542     | 9.3473     | 13.681     |  36.6 | 52.02
Modify  | 0.040476   | 4.3749     | 4.6685     |  53.5 | 24.35
Other   |            | 0.00782    |            |       |  0.04

Nlocal:    62.5 ave 69 max 56 min
Histogram: 1 0 2 3 3 1 4 0 0 2
Nghost:    1879.25 ave 1904 max 1861 min
Histogram: 3 1 2 0 4 3 0 2 0 1
Neighs:    0 ave 0 max 0 min
Histogram: 16 0 0 0 0 0 0 0 0 0
FullNghs:  19065.9 ave 21166 max 16946 min
Histogram: 1 0 2 3 2 2 3 1 0 2

Total # of neighbors = 305054
Ave neighs/atom = 305.054
Neighbor list builds = 1000
Dangerous builds not checked
Setting up Verlet run ...
  Unit style    : real
  Current step  : 18000
  Time step     : 1
Per MPI rank memory allocation (min/avg/max) = 4.578 | 4.579 | 4.58 Mbytes
Step Temp E_pair E_mol TotEng Press Volume Lx Ly Lz S/CPU 
   18000    313.10793   -10542.111            0   -9609.7292    580.55887    774.01131     9.181545     9.181545     9.181545            0 
   18100    301.17232   -10515.584            0   -9618.7445    22040.053    774.60895    9.1839076    9.1839076    9.1839076    60.060848 
   18200    298.99215   -10519.513            0    -9629.165    10591.433    776.34631    9.1907686    9.1907686    9.1907686    51.742512 
   18300    292.44615   -10510.623            0   -9639.7681    -9168.886    778.35414     9.198685     9.198685     9.198685    60.388152 
   18400    295.72948   -10529.439            0   -9648.8074   -5370.1432    779.83712    9.2045233    9.2045233    9.2045233    44.545431 
   18500    296.19702   -10537.402            0   -9655.3783   -11152.085    780.66819    9.2077919    9.2077919    9.2077919    48.355394 
   18600    288.85591   -10520.018            0   -9659.8543   -17233.318     780.7073    9.2079457    9.2079457    9.2079457     57.50227 
   18700     296.4335   -10545.666            0   -9662.9381   -15572.835     780.0279    9.2052738    9.2052738    9.2052738    53.837787 
   18800    296.18188   -10544.218            0   -9662.2387    -9132.402    778.74074    9.2002077    9.2002077    9.2002077    62.060136 
   18900    288.75132   -10519.872            0     -9660.02    4484.0111    777.11918    9.1938174    9.1938174    9.1938174    50.275309 
   19000    282.43837   -10497.325            0   -9656.2716    18219.926    775.47627     9.187334     9.187334     9.187334    51.172478 
Loop time of 18.7176 on 16 procs for 1000 steps with 1000 atoms

Performance: 4.616 ns/day, 5.199 hours/ns, 53.426 timesteps/s
94.9% CPU use with 16 MPI tasks x no OpenMP threads

MPI task timing breakdown:
Section |  min time  |  avg time  |  max time  |%varavg| %total
---------------------------------------------------------------
Pair    | 1.9475     | 2.0771     | 2.6036     |  10.3 | 11.10
Neigh   | 0.66544    | 0.70041    | 0.8745     |   5.7 |  3.74
Comm    | 0.75027    | 1.4511     | 1.6091     |  16.3 |  7.75
Output  | 10.046     | 10.325     | 14.448     |  33.1 | 55.16
Modify  | 0.032474   | 4.1563     | 4.4359     |  52.2 | 22.21
Other   |            | 0.007837   |            |       |  0.04

Nlocal:    62.5 ave 69 max 56 min
Histogram: 2 0 0 3 3 3 3 0 1 1
Nghost:    1878.94 ave 1890 max 1865 min
Histogram: 1 2 0 1 2 1 3 3 1 2
Neighs:    0 ave 0 max 0 min
Histogram: 16 0 0 0 0 0 0 0 0 0
FullNghs:  19047.9 ave 21210 max 16930 min
Histogram: 2 0 0 2 5 3 1 1 1 1

Total # of neighbors = 304766
Ave neighs/atom = 304.766
Neighbor list builds = 1000
Dangerous builds not checked
Setting up Verlet run ...
  Unit style    : real
  Current step  : 19000
  Time step     : 1
Per MPI rank memory allocation (min/avg/max) = 4.578 | 4.579 | 4.58 Mbytes
Step Temp E_pair E_mol TotEng Press Volume Lx Ly Lz S/CPU 
   19000    282.43837   -10497.325            0   -9656.2716    18219.926    775.47627     9.187334     9.187334     9.187334            0 
   19100    289.76423   -10515.855            0   -9652.9871    26330.459    774.41523    9.1831419    9.1831419    9.1831419     63.79825 
   19200     299.8097     -10541.7            0   -9648.9178    11077.229    774.29714    9.1826751    9.1826751    9.1826751    49.865401 
   19300    298.18486   -10533.338            0   -9645.3944    13180.951    775.43932    9.1871881    9.1871881    9.1871881    42.708722 
   19400    288.82312   -10501.405            0   -9641.3388    29448.741    777.53169    9.1954439    9.1954439    9.1954439     41.09958 
   19500    294.89967   -10515.883            0   -9637.7221    5435.9957    780.69285    9.2078888    9.2078888    9.2078888    66.748408 
   19600    281.10357   -10470.243            0   -9633.1651    1045.4821    784.40259    9.2224507    9.2224507    9.2224507    51.989631 
   19700    286.30292   -10479.898            0   -9627.3367   -7786.0086    788.11259    9.2369676    9.2369676    9.2369676     68.92265 
   19800    300.93434   -10517.121            0   -9620.9898   -16850.903    791.41184    9.2498392    9.2498392    9.2498392    57.940656 
   19900     290.4124    -10479.21            0   -9614.4119   -23256.817    793.69793     9.258737     9.258737     9.258737    66.143512 
   20000    295.10254   -10486.748            0   -9607.9829   -13890.267    794.54304     9.262022     9.262022     9.262022    53.790599 
Loop time of 18.3168 on 16 procs for 1000 steps with 1000 atoms

Performance: 4.717 ns/day, 5.088 hours/ns, 54.595 timesteps/s
95.0% CPU use with 16 MPI tasks x no OpenMP threads

MPI task timing breakdown:
Section |  min time  |  avg time  |  max time  |%varavg| %total
---------------------------------------------------------------
Pair    | 1.8815     | 2.0642     | 2.7001     |  12.9 | 11.27
Neigh   | 0.65275    | 0.70218    | 0.88443    |   6.3 |  3.83
Comm    | 0.65801    | 1.4759     | 1.7042     |  19.6 |  8.06
Output  | 9.2435     | 9.5469     | 14.034     |  37.5 | 52.12
Modify  | 0.031728   | 4.5198     | 4.8235     |  54.5 | 24.68
Other   |            | 0.007832   |            |       |  0.04

Nlocal:    62.5 ave 69 max 57 min
Histogram: 2 1 1 3 2 3 0 1 2 1
Nghost:    1850.62 ave 1862 max 1833 min
Histogram: 1 0 2 0 3 2 1 2 2 3
Neighs:    0 ave 0 max 0 min
Histogram: 16 0 0 0 0 0 0 0 0 0
FullNghs:  18603.5 ave 20660 max 16818 min
Histogram: 2 1 3 1 3 0 2 1 2 1

Total # of neighbors = 297656
Ave neighs/atom = 297.656
Neighbor list builds = 1000
Dangerous builds not checked
Setting up Verlet run ...
  Unit style    : real
  Current step  : 20000
  Time step     : 1
Per MPI rank memory allocation (min/avg/max) = 4.578 | 4.579 | 4.58 Mbytes
Step Temp E_pair E_mol TotEng Press Volume Lx Ly Lz S/CPU 
   20000    295.10254   -10486.748            0   -9607.9829   -13890.267    794.54304     9.262022     9.262022     9.262022            0 
   20100    297.61585   -10488.341            0   -9602.0913    -6215.582    794.61766     9.262312     9.262312     9.262312    59.086547 
   20200     298.4997   -10485.701            0   -9596.8196   -14772.103    793.98289    9.2598449    9.2598449    9.2598449    59.063885 
   20300     291.6958   -10460.936            0   -9592.3153    445.53806    792.54176    9.2542392    9.2542392    9.2542392    66.457394 
   20400     299.5146   -10481.795            0   -9589.8914   -881.85533    790.53039    9.2464038    9.2464038    9.2464038    54.816966 
   20500    288.23511   -10445.567            0   -9587.2523   -12524.417    787.99051    9.2364907    9.2364907    9.2364907    57.798568 
   20600    301.95732    -10484.12            0   -9584.9428    6734.3343    785.61455     9.227198     9.227198     9.227198    61.776731 
   20700    300.49987   -10478.337            0   -9583.5002    1702.0657    783.72465     9.219793     9.219793     9.219793    51.390794 
   20800    298.57124   -10471.629            0   -9582.5345    14080.231    782.55771    9.2152147    9.2152147    9.2152147    61.480816 
   20900    297.15726   -10466.442            0   -9581.5584    9815.4002    781.86703    9.2125028    9.2125028    9.2125028    55.012915 
   21000    294.91876   -10460.006            0   -9581.7886    8682.8593    781.39482    9.2106478    9.2106478    9.2106478    58.297233 
Loop time of 17.1689 on 16 procs for 1000 steps with 1000 atoms

Performance: 5.032 ns/day, 4.769 hours/ns, 58.245 timesteps/s
95.0% CPU use with 16 MPI tasks x no OpenMP threads

MPI task timing breakdown:
Section |  min time  |  avg time  |  max time  |%varavg| %total
---------------------------------------------------------------
Pair    | 1.8148     | 2.014      | 2.5951     |  12.3 | 11.73
Neigh   | 0.645      | 0.69314    | 0.85296    |   5.7 |  4.04
Comm    | 0.74919    | 1.4897     | 1.728      |  18.1 |  8.68
Output  | 8.7653     | 9.0295     | 12.927     |  33.5 | 52.59
Modify  | 0.036272   | 3.9347     | 4.1995     |  50.7 | 22.92
Other   |            | 0.007733   |            |       |  0.05

Nlocal:    62.5 ave 67 max 59 min
Histogram: 2 1 4 2 0 1 3 1 0 2
Nghost:    1862.06 ave 1873 max 1848 min
Histogram: 1 2 0 1 1 2 5 1 1 2
Neighs:    0 ave 0 max 0 min
Histogram: 16 0 0 0 0 0 0 0 0 0
FullNghs:  18898.8 ave 20352 max 17776 min
Histogram: 2 1 4 2 1 1 2 1 0 2

Total # of neighbors = 302380
Ave neighs/atom = 302.38
Neighbor list builds = 1000
Dangerous builds not checked
Setting up Verlet run ...
  Unit style    : real
  Current step  : 21000
  Time step     : 1
Per MPI rank memory allocation (min/avg/max) = 4.578 | 4.579 | 4.58 Mbytes
Step Temp E_pair E_mol TotEng Press Volume Lx Ly Lz S/CPU 
   21000    294.91876   -10460.006            0   -9581.7886    8682.8593    781.39482    9.2106478    9.2106478    9.2106478            0 
   21100    304.75274   -10490.464            0   -9582.9626    14616.108    781.46677    9.2109305    9.2109305    9.2109305    51.619098 
   21200    305.37439   -10492.683            0   -9583.3303    5557.9841    781.83534    9.2123783    9.2123783    9.2123783    58.623708 
   21300    308.64803   -10504.471            0     -9585.37   -7071.2168    782.49314    9.2149612    9.2149612    9.2149612    62.815143 
   21400    309.44904   -10510.125            0   -9588.6389    12837.039    783.24076    9.2178951    9.2178951    9.2178951    59.457923 
   21500    304.16268   -10501.194            0     -9595.45    9892.4395    784.24745    9.2218426    9.2218426    9.2218426    62.261321 
   21600    303.89097   -10509.496            0   -9604.5604   -15182.366     785.3322    9.2260924    9.2260924    9.2260924    49.942975 
   21700    301.51047   -10516.033            0   -9618.1867   -5533.4402    785.74765     9.227719     9.227719     9.227719    65.949773 
   21800    297.70419   -10522.665            0   -9636.1527   -15168.571    785.44115    9.2265191    9.2265191    9.2265191    44.456249 
   21900    301.21347   -10551.696            0   -9654.7338   -14996.985     784.4373    9.2225867    9.2225867    9.2225867    68.076372 
   22000    303.70397   -10572.966            0   -9668.5877   -9082.6097    782.75209    9.2159776    9.2159776    9.2159776    44.434398 
Loop time of 18.0105 on 16 procs for 1000 steps with 1000 atoms

Performance: 4.797 ns/day, 5.003 hours/ns, 55.523 timesteps/s
94.9% CPU use with 16 MPI tasks x no OpenMP threads

MPI task timing breakdown:
Section |  min time  |  avg time  |  max time  |%varavg| %total
---------------------------------------------------------------
Pair    | 1.9339     | 2.0391     | 2.6354     |  11.2 | 11.32
Neigh   | 0.67095    | 0.69593    | 0.87029    |   5.5 |  3.86
Comm    | 0.72057    | 1.4911     | 1.6156     |  16.8 |  8.28
Output  | 9.4282     | 9.7017     | 13.738     |  33.5 | 53.87
Modify  | 0.037821   | 4.0749     | 4.3486     |  51.6 | 22.62
Other   |            | 0.007765   |            |       |  0.04

Nlocal:    62.5 ave 69 max 54 min
Histogram: 1 0 1 2 4 1 1 2 2 2
Nghost:    1858.56 ave 1882 max 1830 min
Histogram: 3 1 0 1 2 1 1 3 1 3
Neighs:    0 ave 0 max 0 min
Histogram: 16 0 0 0 0 0 0 0 0 0
FullNghs:  18866.6 ave 20963 max 16114 min
Histogram: 1 0 1 2 3 3 0 2 2 2

Total # of neighbors = 301866
Ave neighs/atom = 301.866
Neighbor list builds = 1000
Dangerous builds not checked
Setting up Verlet run ...
  Unit style    : real
  Current step  : 22000
  Time step     : 1
Per MPI rank memory allocation (min/avg/max) = 4.578 | 4.579 | 4.58 Mbytes
Step Temp E_pair E_mol TotEng Press Volume Lx Ly Lz S/CPU 
   22000    303.70397   -10572.966            0   -9668.5877   -9082.6097    782.75209    9.2159776    9.2159776    9.2159776            0 
   22100    289.67192    -10538.06            0   -9675.4661    2544.2634    780.44328    9.2069076    9.2069076    9.2069076    60.500274 
   22200    286.02453   -10532.102            0   -9680.3702    1202.8099    777.92669    9.1970008    9.1970008    9.1970008    56.523131 
   22300    289.58023   -10545.086            0   -9682.7655    692.13802    775.49807    9.1874201    9.1874201    9.1874201     56.92329 
   22400    291.68314   -10551.156            0    -9682.573    8544.2836    773.62964    9.1800356    9.1800356    9.1800356    62.271962 
   22500    286.99473   -10534.639            0   -9680.0176    2439.8004    772.27266    9.1746651    9.1746651    9.1746651    47.426195 
   22600    281.10255   -10512.445            0   -9675.3698     10338.62    771.14924    9.1702142    9.1702142    9.1702142    66.989549 
   22700    296.68433   -10555.112            0   -9671.6365    12507.951    770.56167    9.1678845    9.1678845    9.1678845    53.561941 
   22800    290.68161   -10531.421            0    -9665.821    17896.448    770.64688    9.1682224    9.1682224    9.1682224    69.398796 
   22900    304.38873   -10567.387            0   -9660.9698      14454.2    771.62286    9.1720911    9.1720911    9.1720911    40.826657 
   23000    299.81184   -10546.476            0   -9653.6879    3731.3667    773.55659    9.1797467    9.1797467    9.1797467    58.816986 
Loop time of 17.8435 on 16 procs for 1000 steps with 1000 atoms

Performance: 4.842 ns/day, 4.957 hours/ns, 56.043 timesteps/s
95.0% CPU use with 16 MPI tasks x no OpenMP threads

MPI task timing breakdown:
Section |  min time  |  avg time  |  max time  |%varavg| %total
---------------------------------------------------------------
Pair    | 1.9178     | 2.0951     | 2.8152     |  13.7 | 11.74
Neigh   | 0.65014    | 0.70214    | 0.90359    |   6.6 |  3.93
Comm    | 0.61262    | 1.5334     | 1.7628     |  20.4 |  8.59
Output  | 9.1428     | 9.4174     | 13.472     |  34.1 | 52.78
Modify  | 0.031696   | 4.0876     | 4.3625     |  51.8 | 22.91
Other   |            | 0.00786    |            |       |  0.04

Nlocal:    62.5 ave 67 max 57 min
Histogram: 1 2 1 1 0 4 0 0 4 3
Nghost:    1879.25 ave 1905 max 1857 min
Histogram: 1 4 1 2 0 0 5 2 0 1
Neighs:    0 ave 0 max 0 min
Histogram: 16 0 0 0 0 0 0 0 0 0
FullNghs:  19061.2 ave 20467 max 17498 min
Histogram: 4 0 1 0 2 2 0 1 3 3

Total # of neighbors = 304980
Ave neighs/atom = 304.98
Neighbor list builds = 1000
Dangerous builds not checked
Setting up Verlet run ...
  Unit style    : real
  Current step  : 23000
  Time step     : 1
Per MPI rank memory allocation (min/avg/max) = 4.578 | 4.579 | 4.58 Mbytes
Step Temp E_pair E_mol TotEng Press Volume Lx Ly Lz S/CPU 
   23000    299.81184   -10546.476            0   -9653.6879    3731.3667    773.55659    9.1797467    9.1797467    9.1797467            0 
   23100    303.44186    -10549.59            0   -9645.9925    10374.623    776.18551     9.190134     9.190134     9.190134    49.797477 
   23200    301.55036   -10535.683            0   -9637.7171    2410.3185    779.30399    9.2024253    9.2024253    9.2024253    69.267378 
   23300    298.07107   -10516.947            0   -9629.3424   -4356.2689    782.70991    9.2158121    9.2158121    9.2158121    53.730777 
   23400    303.59697    -10525.05            0   -9620.9901   -12770.817    785.70109    9.2275368    9.2275368    9.2275368    57.394464 
   23500    296.55425   -10497.048            0   -9613.9605   -1616.5881    788.25219     9.237513     9.237513     9.237513      65.8073 
   23600     298.9384   -10498.898            0   -9608.7105   -6335.7259    790.44663    9.2460773    9.2460773    9.2460773    55.192122 
   23700    296.06898   -10486.173            0   -9604.5303   -12142.098    792.00305    9.2521419    9.2521419    9.2521419    67.834624 
   23800    308.44118   -10520.655            0   -9602.1702    -23127.42    792.54389    9.2542474    9.2542474    9.2542474     55.49838 
   23900     296.0514   -10479.803            0   -9598.2123   -20245.565    791.77206    9.2512424    9.2512424    9.2512424    61.121508 
   24000     294.0914   -10471.128            0   -9595.3744   -2133.1581    790.00592    9.2443586    9.2443586    9.2443586    51.311103 
Loop time of 17.2478 on 16 procs for 1000 steps with 1000 atoms

Performance: 5.009 ns/day, 4.791 hours/ns, 57.979 timesteps/s
95.0% CPU use with 16 MPI tasks x no OpenMP threads

MPI task timing breakdown:
Section |  min time  |  avg time  |  max time  |%varavg| %total
---------------------------------------------------------------
Pair    | 1.7944     | 2.0306     | 2.6536     |  13.0 | 11.77
Neigh   | 0.64279    | 0.69747    | 0.88148    |   6.4 |  4.04
Comm    | 0.66721    | 1.4739     | 1.7646     |  19.6 |  8.55
Output  | 8.7053     | 8.9781     | 13.004     |  34.7 | 52.05
Modify  | 0.03247    | 4.0599     | 4.3331     |  51.6 | 23.54
Other   |            | 0.007775   |            |       |  0.05

Nlocal:    62.5 ave 67 max 58 min
Histogram: 2 1 1 1 3 4 0 0 2 2
Nghost:    1849.81 ave 1866 max 1823 min
Histogram: 1 1 1 0 2 2 3 1 0 5
Neighs:    0 ave 0 max 0 min
Histogram: 16 0 0 0 0 0 0 0 0 0
FullNghs:  18688 ave 20008 max 17143 min
Histogram: 3 0 1 0 4 1 3 0 0 4

Total # of neighbors = 299008
Ave neighs/atom = 299.008
Neighbor list builds = 1000
Dangerous builds not checked
Setting up Verlet run ...
  Unit style    : real
  Current step  : 24000
  Time step     : 1
Per MPI rank memory allocation (min/avg/max) = 4.578 | 4.579 | 4.58 Mbytes
Step Temp E_pair E_mol TotEng Press Volume Lx Ly Lz S/CPU 
   24000     294.0914   -10471.128            0   -9595.3744   -2133.1581    790.00592    9.2443586    9.2443586    9.2443586            0 
   24100    297.57535   -10478.072            0   -9591.9434    -3102.366    787.87275    9.2360305    9.2360305    9.2360305    76.957324 
   24200    300.61596   -10484.259            0    -9589.076    935.97179    785.45543     9.226575     9.226575     9.226575    50.705849 
   24300     294.4463   -10463.518            0   -9586.7071    11412.267    783.06297    9.2171975    9.2171975    9.2171975    45.609069 
   24400    297.84445   -10472.993            0   -9586.0635    8714.7832    781.64572    9.2116335    9.2116335    9.2116335    56.957281 
   24500    314.25729   -10521.926            0   -9586.1215    21175.402    781.27124    9.2101622    9.2101622    9.2101622    57.156429 
   24600    308.22296   -10504.839            0   -9587.0038    9546.6365    781.87865    9.2125484    9.2125484    9.2125484    52.336637 
   24700    305.84697   -10499.247            0   -9588.4869    10675.671    783.39266    9.2184909    9.2184909    9.2184909    66.367737 
   24800     304.7066   -10497.401            0   -9590.0372   -6522.0184    785.19105    9.2255397    9.2255397    9.2255397    49.316294 
   24900    295.86204   -10473.401            0   -9592.3743     6472.389    786.97371    9.2325161    9.2325161    9.2325161    60.857953 
   25000    305.96148   -10506.736            0    -9595.635   -5672.7103    788.78764    9.2396042    9.2396042    9.2396042    52.949793 
Loop time of 17.9464 on 16 procs for 1000 steps with 1000 atoms

Performance: 4.814 ns/day, 4.985 hours/ns, 55.722 timesteps/s
94.9% CPU use with 16 MPI tasks x no OpenMP threads

MPI task timing breakdown:
Section |  min time  |  avg time  |  max time  |%varavg| %total
---------------------------------------------------------------
Pair    | 1.8992     | 2.0369     | 2.6105     |  12.1 | 11.35
Neigh   | 0.65374    | 0.69641    | 0.88054    |   6.4 |  3.88
Comm    | 0.71596    | 1.4738     | 1.6441     |  18.6 |  8.21
Output  | 9.1048     | 9.396      | 13.695     |  36.2 | 52.36
Modify  | 0.035157   | 4.3355     | 4.6271     |  53.3 | 24.16
Other   |            | 0.00778    |            |       |  0.04

Nlocal:    62.5 ave 67 max 55 min
Histogram: 1 0 0 1 1 5 1 4 1 2
Nghost:    1854.81 ave 1868 max 1844 min
Histogram: 4 1 1 0 2 2 1 4 0 1
Neighs:    0 ave 0 max 0 min
Histogram: 16 0 0 0 0 0 0 0 0 0
FullNghs:  18726.1 ave 20054 max 16446 min
Histogram: 1 0 1 1 0 2 4 4 1 2

Total # of neighbors = 299618
Ave neighs/atom = 299.618
Neighbor list builds = 1000
Dangerous builds not checked
Setting up Verlet run ...
  Unit style    : real
  Current step  : 25000
  Time step     : 1
Per MPI rank memory allocation (min/avg/max) = 4.578 | 4.579 | 4.58 Mbytes
Step Temp E_pair E_mol TotEng Press Volume Lx Ly Lz S/CPU 
   25000    305.96148   -10506.736            0    -9595.635   -5672.7103    788.78764    9.2396042    9.2396042    9.2396042            0 
   25100    288.61792   -10456.503            0   -9597.0483   -11091.428    790.22304    9.2452054    9.2452054    9.2452054     60.48029 
   25200    286.73857   -10452.106            0   -9598.2474   -8110.0567    790.61761    9.2467439    9.2467439    9.2467439    66.334044 
   25300    296.30565   -10481.616            0   -9599.2679    3812.5493    790.14423     9.244898     9.244898     9.244898    65.152838 
   25400    305.64151    -10509.75            0   -9599.6017   -7341.4842    789.58796     9.242728     9.242728     9.242728    66.950679 
   25500    300.03975   -10491.443            0    -9597.976   -7629.5629    788.61915    9.2389462    9.2389462    9.2389462    50.987357 
   25600    298.56506   -10485.148            0   -9596.0718    6006.1473    787.22268    9.2334896    9.2334896    9.2334896    70.269213 
   25700     290.4019   -10458.085            0   -9593.3177    -11146.93    785.51912    9.2268244    9.2268244    9.2268244    53.842776 
   25800    313.34031   -10524.717            0   -9591.6428    -3563.242    783.68916    9.2196538    9.2196538    9.2196538    78.727346 
   25900    309.25927   -10509.475            0   -9588.5534    16485.191    782.04685     9.213209     9.213209     9.213209    51.901902 
   26000    299.58129   -10477.118            0   -9585.0159    11457.082    780.76053    9.2081549    9.2081549    9.2081549    76.387112 
Loop time of 15.9371 on 16 procs for 1000 steps with 1000 atoms

Performance: 5.421 ns/day, 4.427 hours/ns, 62.747 timesteps/s
95.1% CPU use with 16 MPI tasks x no OpenMP threads

MPI task timing breakdown:
Section |  min time  |  avg time  |  max time  |%varavg| %total
---------------------------------------------------------------
Pair    | 1.9151     | 2.0248     | 2.5552     |  10.4 | 12.71
Neigh   | 0.66213    | 0.6972     | 0.8632     |   5.5 |  4.37
Comm    | 0.76847    | 1.4648     | 1.6072     |  15.9 |  9.19
Output  | 7.6767     | 7.933      | 11.713     |  34.6 | 49.78
Modify  | 0.028983   | 3.8096     | 4.0662     |  50.0 | 23.90
Other   |            | 0.007737   |            |       |  0.05

Nlocal:    62.5 ave 70 max 57 min
Histogram: 1 1 4 5 0 1 1 1 1 1
Nghost:    1861.5 ave 1881 max 1837 min
Histogram: 1 1 1 2 2 2 2 1 1 3
Neighs:    0 ave 0 max 0 min
Histogram: 16 0 0 0 0 0 0 0 0 0
FullNghs:  18912.9 ave 21264 max 17200 min
Histogram: 1 1 4 5 0 1 1 1 1 1

Total # of neighbors = 302606
Ave neighs/atom = 302.606
Neighbor list builds = 1000
Dangerous builds not checked
Setting up Verlet run ...
  Unit style    : real
  Current step  : 26000
  Time step     : 1
Per MPI rank memory allocation (min/avg/max) = 4.578 | 4.579 | 4.58 Mbytes
Step Temp E_pair E_mol TotEng Press Volume Lx Ly Lz S/CPU 
   26000    299.58129   -10477.118            0   -9585.0159    11457.082    780.76053    9.2081549    9.2081549    9.2081549            0 
   26100     312.6192   -10512.215            0   -9581.2888    14460.462    779.98996    9.2051246    9.2051246    9.2051246    54.323999 
   26200    308.38432   -10494.095            0   -9575.7787    17559.858     779.7645    9.2042376    9.2042376    9.2042376    70.170801 
   26300     306.3888   -10479.643            0     -9567.27     7085.555    780.11279    9.2056078    9.2056078    9.2056078    56.746288 
   26400    307.22757   -10469.502            0   -9554.6303      8148.34    781.47346    9.2109568    9.2109568    9.2109568    50.868023 
   26500    303.71955    -10444.08            0   -9539.6551   -11594.681    783.43772    9.2186677    9.2186677    9.2186677    65.225199 
   26600     304.0685    -10429.75            0   -9524.2857    1080.3462    785.76225    9.2277762    9.2277762    9.2277762    53.229018 
   26700    305.38099   -10422.618            0   -9513.2451   -20052.898     788.0086    9.2365613    9.2365613    9.2365613    48.047915 
   26800    308.73876   -10425.477            0   -9506.1053   -19470.251    789.49526    9.2423663    9.2423663    9.2423663    60.734534 
   26900    319.22858   -10453.193            0   -9502.5847   -30111.371    790.34693    9.2456885    9.2456885    9.2456885    66.543446 
   27000    307.60375   -10416.536            0    -9500.545   -8494.8926     789.8413    9.2437164    9.2437164    9.2437164    50.822273 
Loop time of 17.604 on 16 procs for 1000 steps with 1000 atoms

Performance: 4.908 ns/day, 4.890 hours/ns, 56.805 timesteps/s
95.0% CPU use with 16 MPI tasks x no OpenMP threads

MPI task timing breakdown:
Section |  min time  |  avg time  |  max time  |%varavg| %total
---------------------------------------------------------------
Pair    | 1.891      | 2.0498     | 2.5735     |  10.9 | 11.64
Neigh   | 0.65738    | 0.70024    | 0.86642    |   5.7 |  3.98
Comm    | 0.75673    | 1.4468     | 1.6484     |  16.9 |  8.22
Output  | 8.9477     | 9.2278     | 13.364     |  35.2 | 52.42
Modify  | 0.034605   | 4.1715     | 4.4517     |  52.3 | 23.70
Other   |            | 0.007804   |            |       |  0.04

Nlocal:    62.5 ave 69 max 59 min
Histogram: 2 1 4 0 5 2 0 1 0 1
Nghost:    1859.69 ave 1873 max 1846 min
Histogram: 1 2 1 3 2 1 2 1 0 3
Neighs:    0 ave 0 max 0 min
Histogram: 16 0 0 0 0 0 0 0 0 0
FullNghs:  18676 ave 20852 max 17637 min
Histogram: 2 4 1 5 2 0 1 0 0 1

Total # of neighbors = 298816
Ave neighs/atom = 298.816
Neighbor list builds = 1000
Dangerous builds not checked
Setting up Verlet run ...
  Unit style    : real
  Current step  : 27000
  Time step     : 1
Per MPI rank memory allocation (min/avg/max) = 4.578 | 4.579 | 4.58 Mbytes
Step Temp E_pair E_mol TotEng Press Volume Lx Ly Lz S/CPU 
   27000    307.60375   -10416.536            0    -9500.545   -8494.8926     789.8413    9.2437164    9.2437164    9.2437164            0 
   27100    301.10465   -10397.115            0   -9500.4764    11325.417    788.42917    9.2382043    9.2382043    9.2382043    43.073699 
   27200    306.17424     -10414.2            0   -9502.4653     2821.308    786.96169    9.2324691    9.2324691    9.2324691    67.229053 
   27300     311.9428   -10436.915            0   -9508.0028   -920.97884    785.63671    9.2272848    9.2272848    9.2272848    49.868653 
   27400    311.81758    -10444.01            0     -9515.47   -4772.3915    784.45513    9.2226565    9.2226565    9.2226565    67.455347 
   27500    313.61264   -10460.138            0   -9526.2532   -1272.2395    783.36666     9.218389     9.218389     9.218389     49.28494 
   27600    320.82333   -10495.665            0   -9540.3081   -4439.1924    782.82468    9.2162625    9.2162625    9.2162625    70.998218 
   27700    299.72983   -10446.149            0   -9553.6052   -7438.1468    782.24757    9.2139972    9.2139972    9.2139972    47.854048 
   27800    304.49681   -10471.577            0   -9564.8376   -1292.7409    781.46596    9.2109273    9.2109273    9.2109273    64.339083 
   27900    296.76591   -10457.634            0   -9573.9163    11117.857    781.02347    9.2091885    9.2091885    9.2091885    56.059214 
   28000    305.56074   -10490.747            0   -9580.8395   -1987.6306    780.78892    9.2082665    9.2082665    9.2082665    67.810077 
Loop time of 17.6368 on 16 procs for 1000 steps with 1000 atoms

Performance: 4.899 ns/day, 4.899 hours/ns, 56.700 timesteps/s
[...]
  603700    302.91752   -11481.702            0   -10579.666   -13400.471     751.8033     9.092879     9.092879     9.092879    56.620169 
  603800    309.65251   -11500.196            0   -10578.104    8278.5278    749.48363    9.0835173    9.0835173    9.0835173    49.038095 
  603900    306.07084   -11486.736            0    -10575.31    11650.323    747.59155    9.0758671    9.0758671    9.0758671    55.185977 
  604000    306.41829   -11484.869            0   -10572.407    10195.372    746.55653    9.0716768    9.0716768    9.0716768    54.711043 
  604100    310.50209    -11494.31            0   -10569.688    13472.622    746.59093    9.0718161    9.0718161    9.0718161    46.630062 
  604200    311.33284   -11493.007            0   -10565.911    7766.4015    747.62431    9.0759997    9.0759997    9.0759997    60.244599 
  604300    307.48584   -11478.414            0   -10562.774    3106.0008    749.37591    9.0830822    9.0830822    9.0830822    54.626815 
  604400     305.5693   -11467.556            0   -10557.623    1770.0463    751.38038    9.0911736    9.0911736    9.0911736    68.419685 
  604500     298.0644   -11439.235            0    -10551.65   -11382.821    753.16581    9.0983687    9.0983687    9.0983687    57.749145 
  604600    296.40846   -11427.233            0    -10544.58    -13553.42    754.15737    9.1023597    9.1023597    9.1023597    64.324407 
  604700    307.15757   -11452.035            0   -10537.372   -13167.119    754.05372    9.1019427    9.1019427    9.1019427    58.777114 
  604800    300.54415    -11423.03            0   -10528.061   -9528.2815    752.96317    9.0975527    9.0975527    9.0975527    58.428191 
  604900    307.85663    -11435.87            0   -10519.125   -7700.1678    751.33438    9.0909881    9.0909881    9.0909881    53.044532 
  605000    321.03675   -11468.782            0   -10512.789    3392.3494    749.55694    9.0838135    9.0838135    9.0838135    62.198934 
  605100    316.97123   -11450.606            0    -10506.72    17494.773    748.17635     9.078233     9.078233     9.078233    49.605088 
  605200    315.09874   -11440.342            0   -10502.032    24079.808    747.80298    9.0767226    9.0767226    9.0767226      65.4855 
  605300    308.07565   -11419.151            0   -10501.754    13069.956    748.52314    9.0796354    9.0796354    9.0796354    53.455498 
  605400    312.01515   -11433.604            0   -10504.476    3513.1799    750.10539    9.0860285    9.0860285    9.0860285    52.765909 
  605500    308.00611   -11424.797            0   -10507.607   -4504.6768    752.03383    9.0938083    9.0938083    9.0938083    62.001583 
  605600    303.84582   -11419.521            0    -10514.72   -6064.9557    753.75794    9.1007524    9.1007524    9.1007524    63.076099 
  605700    312.49288   -11456.721            0   -10526.171   -20597.885    754.74582    9.1047265    9.1047265    9.1047265    63.765556 
  605800    297.35487   -11423.964            0   -10538.492   -24420.851    754.56764      9.10401      9.10401      9.10401    51.740286 
  605900    306.57524   -11465.599            0    -10552.67   -7666.4966    753.27764     9.098819     9.098819     9.098819    64.121327 
  606000     301.3386     -11462.6            0   -10565.265   -3621.1625    751.23864    9.0906019    9.0906019    9.0906019    49.982185 
  606100    288.11145   -11432.838            0   -10574.892    5793.7959    748.92099    9.0812438    9.0812438    9.0812438    71.657301 
  606200    303.44869   -11485.421            0   -10581.802    13229.219    746.85328    9.0728786    9.0728786    9.0728786    58.798765 
  606300    300.13418   -11479.908            0   -10586.159    15334.731     745.5856    9.0677423    9.0677423    9.0677423    67.241201 
  606400    294.55191   -11465.922            0   -10588.797     11922.44    745.41788    9.0670624    9.0670624    9.0670624    50.494325 
  606500    283.32021   -11433.741            0   -10590.062    13208.675    746.33325    9.0707723    9.0707723    9.0707723    44.887197 
  606600    292.75827   -11463.238            0   -10591.454    5024.4786    747.98911    9.0774756    9.0774756    9.0774756    64.301961 
  606700    306.55779   -11505.638            0   -10592.761    1599.7074     749.9643    9.0854588    9.0854588    9.0854588    44.875037 
  606800    294.82147   -11469.559            0   -10591.631   -8890.6295    751.71046    9.0925046    9.0925046    9.0925046    69.454649 
  606900    297.20023   -11475.953            0   -10590.942   -17367.097    752.76566    9.0967571    9.0967571    9.0967571    58.262581 
  607000    295.23265   -11466.792            0    -10587.64   -21474.732    752.84392    9.0970724    9.0970724    9.0970724    47.036819 
  607100     303.5837   -11488.485            0   -10584.465   -8901.3407    751.90645    9.0932948    9.0932948    9.0932948    57.145008 
  607200    295.95681   -11460.466            0   -10579.158    418.54054    750.36724    9.0870857    9.0870857    9.0870857    50.251685 
  607300    299.91418   -11467.089            0   -10573.996    1227.8613    748.79794    9.0807464    9.0807464    9.0807464    64.309647 
  607400    310.94847   -11493.286            0   -10567.335    15337.301     747.6846    9.0762436    9.0762436    9.0762436    60.661191 
  607500    290.58127   -11425.208            0   -10559.907    10999.272    747.32845    9.0748023    9.0748023    9.0748023    66.099128 
  607600    305.73674   -11464.042            0    -10553.61    14297.439    747.63436    9.0760404    9.0760404    9.0760404    50.551298 
  607700    308.73155   -11466.676            0   -10547.326    3187.3714    748.81251    9.0808053    9.0808053    9.0808053    63.384285 
  607800    300.81012   -11435.061            0     -10539.3   -3589.7857    750.48998    9.0875811    9.0875811    9.0875811    42.296685 
  607900    301.91544   -11429.036            0   -10529.984   -7488.3308    752.27229    9.0947693    9.0947693    9.0947693    68.475838 
  608000    316.56223   -11465.113            0   -10522.444   -2123.1659    753.75464    9.1007391    9.1007391    9.1007391    49.945162 
  608100    308.23305   -11427.521            0   -10509.655   -18638.872    754.65204    9.1043494    9.1043494    9.1043494    48.342304 
  608200    308.99527   -11417.969            0   -10497.834   -10889.191    754.67229    9.1044308    9.1044308    9.1044308    63.034265 
  608300    308.73663   -11403.866            0   -10484.501   -6563.0967    753.87446    9.1012214    9.1012214    9.1012214    47.353416 
  608400    325.27758   -11442.292            0   -10473.671   -15105.943    752.52718    9.0957964    9.0957964    9.0957964    52.013803 
  608500     325.7369   -11435.599            0    -10465.61    586.06604    750.88811    9.0891878    9.0891878    9.0891878    51.405696 
  608600    318.08734   -11405.104            0   -10457.894    13811.136    749.55308    9.0837979    9.0837979    9.0837979    56.616699 
  608700    315.06122   -11393.897            0   -10455.699    12975.433    748.97097    9.0814458    9.0814458    9.0814458    68.301006 
  608800     322.1909   -11417.945            0   -10458.515    12633.926    749.26031    9.0826151    9.0826151    9.0826151    56.358913 
  608900    316.78994   -11409.988            0   -10466.642    5870.9004    750.31358     9.086869     9.086869     9.086869    71.531652 
  609000    313.37599   -11413.386            0   -10480.206    8271.2103      751.894    9.0932446    9.0932446    9.0932446    56.794517 
  609100    305.09254   -11407.781            0   -10499.267   -13216.925    753.49676    9.0997011    9.0997011    9.0997011    76.571488 
  609200    295.96779   -11399.554            0   -10518.212   -18630.331     754.4713    9.1036225    9.1036225    9.1036225    56.797232 
  609300    290.14923   -11395.674            0    -10531.66        -8589    754.50997    9.1037781    9.1037781    9.1037781    70.230314 
  609400    299.08324   -11431.791            0   -10541.172   -12568.645    753.41521    9.0993729    9.0993729    9.0993729    49.930402 
  609500    297.94756   -11434.239            0   -10547.002   -1617.1625    751.53633    9.0918025    9.0918025    9.0918025    63.572328 
  609600    305.00597   -11459.725            0   -10551.469    5640.5286    749.40655    9.0832059    9.0832059    9.0832059     50.52445 
  609700    295.09439   -11433.207            0   -10554.466    6171.4559    747.50001    9.0754967    9.0754967    9.0754967    55.534357 
  609800    316.24318   -11501.369            0   -10559.651    22691.735    746.30922    9.0706749    9.0706749    9.0706749    58.050027 
  609900    305.32386   -11472.282            0    -10563.08    15788.963     746.2586    9.0704698    9.0704698    9.0704698    49.057683 
  610000    292.32652   -11437.677            0   -10567.179    17179.265     747.3164    9.0747535    9.0747535    9.0747535    64.346863 
  610100    297.21981   -11455.977            0   -10570.908     7514.947    749.24975    9.0825724    9.0825724    9.0825724    42.270612 
  610200    299.19211   -11466.482            0   -10575.539   -6234.4961    751.42697    9.0913615    9.0913615    9.0913615    55.685606 
  610300    299.93908   -11472.084            0   -10578.917   -16861.522    753.12329    9.0981975    9.0981975    9.0981975    50.810066 
  610400    288.28855   -11440.589            0   -10582.114   -20596.552    753.94234    9.1014945    9.1014945    9.1014945    65.127624 
  610500    293.96845   -11461.332            0   -10585.945   -12433.386    753.69417    9.1004958    9.1004958    9.1004958    56.904884 
  610600     296.7671   -11473.184            0   -10589.462   -8846.9205    752.34345    9.0950561    9.0950561    9.0950561    63.917962 
  610700    294.47337   -11468.455            0   -10591.563    527.95273     750.2188    9.0864864    9.0864864    9.0864864    52.419906 
  610800    296.82804   -11476.709            0   -10592.806    6165.8344    747.93399    9.0772526    9.0772526    9.0772526    61.704681 
  610900    293.45612    -11468.37            0   -10594.508   -625.55006      746.077     9.069734     9.069734     9.069734    43.897154 
  611000    288.02096   -11451.091            0   -10593.413     25397.41     744.9197     9.065042     9.065042     9.065042    55.894521 
  611100     307.5865   -11511.152            0   -10595.212    21425.214    745.08385    9.0657078    9.0657078    9.0657078    42.407088 
  611200    305.22884   -11503.308            0   -10594.389    10312.733     746.5808    9.0717751    9.0717751    9.0717751    56.727193 
  611300    297.97058   -11479.762            0   -10592.456    7540.0641    748.98493    9.0815022    9.0815022    9.0815022    61.547036 
  611400    300.12551   -11483.802            0    -10590.08   -3672.8283    751.52535    9.0917582    9.0917582    9.0917582    66.185239 
  611500    307.87538   -11501.495            0   -10584.694   -16392.773    753.49774    9.0997051    9.0997051    9.0997051    54.081181 
  611600    300.40213   -11472.783            0   -10578.237   -14355.249    754.47955    9.1036557    9.1036557    9.1036557    83.887937 
  611700     296.3977   -11451.761            0   -10569.139   -18635.812     754.2794    9.1028506    9.1028506    9.1028506    49.431768 
  611800    293.05355   -11431.224            0   -10558.561   -13431.737    753.06866    9.0979775    9.0979775    9.0979775    43.763107 
  611900    300.26418   -11442.754            0   -10548.618   -7371.1366    751.17592    9.0903489    9.0903489    9.0903489    64.705016 
  612000    307.69381   -11455.481            0   -10539.221    2078.2791    749.06413    9.0818223    9.0818223    9.0818223    61.242468 
  612100    309.24307   -11452.219            0   -10531.346    14727.273    747.33279    9.0748198    9.0748198    9.0748198    61.905724 
  612200    305.29592   -11433.913            0   -10524.793     25327.59    746.56428    9.0717081    9.0717081    9.0717081    47.088677 
  612300    314.35427   -11456.916            0   -10520.823    10455.285    747.09402    9.0738533    9.0738533    9.0738533    57.268832 
  612400    304.40407   -11425.078            0   -10518.615    8672.0677    748.72755    9.0804618    9.0804618    9.0804618    44.453997 
  612500    317.47586   -11464.141            0   -10518.752    1762.9026    750.97064    9.0895208    9.0895208    9.0895208    41.341716 
  612600    308.74795   -11437.814            0   -10518.415   -12613.454    753.24605    9.0986918    9.0986918    9.0986918    54.730125 
  612700    300.01104   -11414.105            0   -10520.723   -13584.969    754.94873    9.1055424    9.1055424    9.1055424    53.363077 
  612800    310.51802   -11451.749            0   -10527.079   -22607.993    755.55763    9.1079897    9.1079897    9.1079897    57.599033 
  612900     306.7809   -11447.813            0   -10534.272   -19565.866    754.99953    9.1057466    9.1057466    9.1057466    58.964736 
  613000    300.51195    -11440.07            0   -10545.197   -9268.7214    753.18892    9.0984618    9.0984618    9.0984618    49.648408 
  613100    303.09233   -11461.236            0   -10558.679   -1840.9042    750.53042    9.0877443    9.0877443    9.0877443    69.709513 
  613200    300.11825   -11469.357            0   -10575.656    3530.2723    747.70271    9.0763169    9.0763169    9.0763169    52.117143 
  613300    310.19086   -11514.404            0   -10590.708    21553.637    745.35022     9.066788     9.066788     9.066788      62.5388 
  613400     286.7432   -11454.497            0   -10600.624     20988.07    744.14764    9.0619091    9.0619091    9.0619091    48.775478 
  613500    286.43035   -11460.607            0   -10607.666     21389.94    744.39566    9.0629158    9.0629158    9.0629158    53.069211 
  613600    294.63461   -11489.547            0   -10612.176    18227.796     745.8884    9.0689697    9.0689697    9.0689697    66.591294 
  613700    296.54513    -11496.84            0    -10613.78   -249.31065    748.38236    9.0790662    9.0790662    9.0790662    43.639875 
  613800    290.44426   -11478.534            0   -10613.641   -15073.278    751.14637    9.0902297    9.0902297    9.0902297    68.286924 
  613900    294.45537   -11489.443            0   -10612.606   -17691.208    753.47803    9.0996258    9.0996258    9.0996258    40.872923 
  614000    292.47786   -11480.457            0   -10609.508   -19521.026    754.69758    9.1045326    9.1045326    9.1045326    79.704886 
  614100    297.56349   -11491.099            0   -10605.005   -28178.285    754.44218    9.1035054    9.1035054    9.1035054    53.618037 
  614200     284.1114    -11445.03            0   -10598.995   -8987.8694    752.92443    9.0973966    9.0973966    9.0973966    70.242006 
  614300     292.5806   -11463.234            0   -10591.979   -6431.4168    750.65557    9.0882494    9.0882494    9.0882494    45.571071 
  614400    290.95369    -11449.78            0    -10583.37    9445.5108    748.13111      9.07805      9.07805      9.07805     61.40948 
  614500    310.04641   -11500.075            0    -10576.81    14986.242    746.03323    9.0695567    9.0695567    9.0695567    54.083283 
  614600    288.32559   -11425.847            0   -10567.262    18873.661     744.9379    9.0651158    9.0651158    9.0651158    53.859738 
  614700    317.31447   -11507.458            0    -10562.55    24273.633    745.21102    9.0662235    9.0662235    9.0662235    64.076071 
  614800    288.40652   -11413.435            0   -10554.609    19211.951    746.86342    9.0729196    9.0729196    9.0729196    52.439919 
  614900    308.37965   -11470.649            0   -10552.347    5569.2147    749.45533     9.083403     9.083403     9.083403    67.475401 
  615000    312.46292   -11480.428            0   -10549.967   -5713.6489     752.3291    9.0949983    9.0949983    9.0949983    46.259151 
  615100    298.17225    -11432.85            0   -10544.944   -22584.566    754.77691    9.1048515    9.1048515    9.1048515    54.025862 
  615200    299.01367   -11433.066            0   -10542.654   -22034.858     756.1476    9.1103597    9.1103597    9.1103597    57.437526 
  615300    306.60996   -11453.142            0    -10540.11   -22521.455     755.9169    9.1094331    9.1094331    9.1094331    40.235909 
  615400    307.79935   -11455.853            0   -10539.279   -14180.606     754.0931    9.1021011    9.1021011    9.1021011      53.9026 
  615500     298.6012   -11426.075            0   -10536.891    351.93747    751.18356    9.0903797    9.0903797    9.0903797    68.628757 
  615600     294.7074    -11412.96            0   -10535.372    11082.067    748.22374    9.0784247    9.0784247    9.0784247     54.97961 
  615700    291.15132   -11401.407            0   -10534.408    18895.231    745.89351    9.0689904    9.0689904    9.0689904    52.894716 
  615800    310.77285   -11463.956            0   -10538.527    27706.405     744.8047    9.0645755    9.0645755    9.0645755    51.563145 
  615900    314.61632   -11482.203            0    -10545.33    26835.759    745.27394    9.0664787    9.0664787    9.0664787    62.132455 
  616000    298.99898   -11446.272            0   -10555.904    14642.206    747.28028    9.0746073    9.0746073    9.0746073    47.137159 
  616100    299.00461   -11462.952            0   -10572.567   -3610.2404    750.03926    9.0857615    9.0857615    9.0857615    68.084795 
  616200    298.45409   -11480.017            0   -10591.272    -8572.165    752.65201    9.0962993    9.0962993    9.0962993    56.462809 
  616300    287.83569   -11461.402            0   -10604.277    -22424.89    754.42354    9.1034304    9.1034304    9.1034304    57.208371 
  616400    303.37193   -11517.769            0   -10614.379   -32324.021    754.79129    9.1049094    9.1049094    9.1049094    48.589028 
  616500    304.65542   -11528.597            0   -10621.386   -26661.902     753.6892    9.1004758    9.1004758    9.1004758    71.321315 
  616600    294.72453   -11502.307            0   -10624.668   -10330.118    751.45216    9.0914631    9.0914631    9.0914631     52.92119 
  616700    295.44949    -11505.94            0   -10626.142    9820.2062    748.64089    9.0801115    9.0801115    9.0801115    48.222602 
  616800    291.52714   -11493.719            0   -10625.601     10523.96    746.09458    9.0698052    9.0698052    9.0698052    52.527256 
  616900    285.23498   -11470.536            0   -10621.155    23166.604    744.51047    9.0633817    9.0633817    9.0633817    53.576467 
  617000    292.08717   -11486.714            0   -10616.928    21341.757    744.31999    9.0626087    9.0626087    9.0626087    37.315635 
Loop time of 1821.76 on 16 procs for 100000 steps with 1000 atoms

Performance: 4.743 ns/day, 5.060 hours/ns, 54.892 timesteps/s
94.9% CPU use with 16 MPI tasks x no OpenMP threads

MPI task timing breakdown:
Section |  min time  |  avg time  |  max time  |%varavg| %total
---------------------------------------------------------------
Pair    | 187.76     | 197.47     | 256.43     | 111.5 | 10.84
Neigh   | 68.065     | 71.177     | 89.659     |  58.3 |  3.91
Comm    | 64.218     | 141.65     | 153.83     | 172.9 |  7.78
Output  | 951.57     | 980.46     | 1407.3     | 352.0 | 53.82
Modify  | 3.2385     | 430.22     | 459.14     | 531.5 | 23.62
Other   |            | 0.7887     |            |       |  0.04

Nlocal:    62.5 ave 67 max 59 min
Histogram: 1 2 1 5 0 3 2 0 1 1
Nghost:    1939.19 ave 1947 max 1929 min
Histogram: 1 0 1 2 3 1 3 2 1 2
Neighs:    0 ave 0 max 0 min
Histogram: 16 0 0 0 0 0 0 0 0 0
FullNghs:  19799.2 ave 21325 max 18636 min
Histogram: 2 1 1 5 2 2 1 0 1 1

Total # of neighbors = 316788
Ave neighs/atom = 316.788
Neighbor list builds = 100000
Dangerous builds not checked
Total wall time: 3:11:14
