LAMMPS (16 Mar 2018)
Reading data file ...
  orthogonal box = (-4.73017 -4.73017 -4.73017) to (4.73017 4.73017 4.73017)
  1 by 2 by 2 MPI processor grid
  reading atoms ...
  1000 atoms
Reading potential file /home/fs01/ajm529/lammps-16Mar18/potentials/sw_potentials/AG/eps2.23.sw with DATE: 2008-01-29
Neighbor list info ...
  update every 1 steps, delay 0 steps, check no
  max neighbors/atom: 2000, page size: 100000
  master list distance cutoff = 3.836
  ghost atom cutoff = 3.836
  binsize = 1.918, bins = 5 5 5
  1 neighbor lists, perpetual/occasional/extra = 1 0 0
  (1) pair sw, perpetual
      attributes: full, newton on
      pair build: full/bin/atomonly
      stencil: full/bin/3d
      bin: standard
Setting up Verlet run ...
  Unit style    : real
  Current step  : 0
  Time step     : 1
Per MPI rank memory allocation (min/avg/max) = 3.62 | 3.621 | 3.621 Mbytes
Step Temp E_pair E_mol TotEng Press Volume Lx Ly Lz S/CPU 
       0          300   -10116.715            0   -9223.3665   -39818.218    846.68055    9.4603353    9.4603353    9.4603353            0 
     100    327.84759   -10204.904            0   -9228.6303   -45813.567    844.86676     9.453575     9.453575     9.453575    29.402606 
     200    328.01136   -10219.244            0   -9242.4826   -40956.967     839.4364    9.4332773    9.4332773    9.4332773    30.780934 
     300    328.49722   -10241.096            0   -9262.8878   -31311.308    830.86816    9.4010719    9.4010719    9.4010719     26.92978 
     400    329.44488   -10268.819            0   -9287.7881     -32949.5    820.30362    9.3610567    9.3610567    9.3610567    24.428183 
     500    327.12983   -10281.763            0   -9307.6266   -6639.7894    809.01854     9.317931     9.317931     9.317931    31.822563 
     600    324.36186   -10289.892            0   -9323.9981   -19250.475    798.94007    9.2790761    9.2790761    9.2790761    24.964158 
     700    320.71013   -10294.368            0   -9339.3484    20351.265    790.50248     9.246295     9.246295     9.246295    33.160173 
     800    324.89023   -10322.757            0   -9355.2893    23365.258    784.43272    9.2225687    9.2225687    9.2225687     25.81136 
     900    342.59442   -10394.419            0   -9374.2313     25035.36    780.66961    9.2077974    9.2077974    9.2077974    29.273801 
    1000    318.21553   -10340.923            0   -9393.3313    14583.024    778.97098    9.2011143    9.2011143    9.2011143    27.005769 
Loop time of 35.6139 on 4 procs for 1000 steps with 1000 atoms

Performance: 2.426 ns/day, 9.893 hours/ns, 28.079 timesteps/s
84.7% CPU use with 4 MPI tasks x no OpenMP threads

MPI task timing breakdown:
Section |  min time  |  avg time  |  max time  |%varavg| %total
---------------------------------------------------------------
Pair    | 8.8335     | 9.1352     | 9.5346     |   8.4 | 25.65
Neigh   | 3.5684     | 3.652      | 3.8069     |   4.8 | 10.25
Comm    | 1.2043     | 1.758      | 2.0912     |  25.3 |  4.94
Output  | 14.24      | 15.933     | 21.008     |  73.4 | 44.74
Modify  | 0.042156   | 5.1185     | 6.8136     | 129.5 | 14.37
Other   |            | 0.01675    |            |       |  0.05

Nlocal:    250 ave 258 max 242 min
Histogram: 1 1 0 0 0 0 0 0 1 1
Nghost:    3037 ave 3067 max 3012 min
Histogram: 2 0 0 0 0 0 0 1 0 1
Neighs:    0 ave 0 max 0 min
Histogram: 4 0 0 0 0 0 0 0 0 0
FullNghs:  75820.5 ave 78803 max 72899 min
Histogram: 1 0 1 0 0 0 1 0 0 1

Total # of neighbors = 303282
Ave neighs/atom = 303.282
Neighbor list builds = 1000
Dangerous builds not checked
Setting up Verlet run ...
  Unit style    : real
  Current step  : 1000
  Time step     : 1
Per MPI rank memory allocation (min/avg/max) = 3.625 | 3.626 | 3.627 Mbytes
Step Temp E_pair E_mol TotEng Press Volume Lx Ly Lz S/CPU 
    1000    318.21553   -10340.923            0   -9393.3313    14583.024    778.97098    9.2011143    9.2011143    9.2011143            0 
    1100    315.92327   -10354.601            0   -9413.8359    32765.147    778.86646    9.2007028    9.2007028    9.2007028    28.180634 
    1200    330.22943   -10416.767            0   -9433.4003    14803.993    780.39078    9.2067011    9.2067011    9.2067011    29.622987 
    1300    332.01795   -10443.263            0   -9454.5705    10360.452    782.72615    9.2158758    9.2158758    9.2158758    26.473978 
    1400    324.61737   -10441.126            0   -9474.4707    5485.7798    786.01439    9.2287631    9.2287631    9.2287631    29.605791 
    1500    304.86814   -10399.773            0   -9491.9281    4851.5228    789.85657     9.243776     9.243776     9.243776    27.900904 
    1600     316.4773   -10452.487            0   -9510.0716    1686.7449    793.74382    9.2589155    9.2589155    9.2589155    28.494498 
    1700    308.38816    -10443.38            0   -9525.0531   -16186.428    797.29688    9.2727102    9.2727102    9.2727102    28.811368 
    1800    301.31435   -10435.796            0   -9538.5332    -22941.29    799.81056    9.2824448    9.2824448    9.2824448    26.052171 
    1900    299.72314   -10444.985            0   -9552.4603   -32041.994    800.51465    9.2851679    9.2851679    9.2851679     23.55138 
    2000    305.13343   -10474.031            0   -9565.3958   -9649.8706    799.33679    9.2806116    9.2806116    9.2806116     32.63612 
Loop time of 35.7923 on 4 procs for 1000 steps with 1000 atoms

Performance: 2.414 ns/day, 9.942 hours/ns, 27.939 timesteps/s
85.1% CPU use with 4 MPI tasks x no OpenMP threads

MPI task timing breakdown:
Section |  min time  |  avg time  |  max time  |%varavg| %total
---------------------------------------------------------------
Pair    | 9.3375     | 9.6158     | 10.077     |   9.0 | 26.87
Neigh   | 3.5606     | 3.6883     | 3.8397     |   5.2 | 10.30
Comm    | 1.2243     | 1.8369     | 2.2425     |  27.7 |  5.13
Output  | 12.865     | 14.797     | 20.587     |  86.9 | 41.34
Modify  | 0.046786   | 5.8376     | 7.7706     | 138.4 | 16.31
Other   |            | 0.01687    |            |       |  0.05

Nlocal:    250 ave 256 max 248 min
Histogram: 3 0 0 0 0 0 0 0 0 1
Nghost:    2975.5 ave 2993 max 2964 min
Histogram: 2 0 0 0 0 1 0 0 0 1
Neighs:    0 ave 0 max 0 min
Histogram: 4 0 0 0 0 0 0 0 0 0
FullNghs:  73830 ave 75896 max 72866 min
Histogram: 2 0 1 0 0 0 0 0 0 1

Total # of neighbors = 295320
Ave neighs/atom = 295.32
Neighbor list builds = 1000
Dangerous builds not checked
Setting up Verlet run ...
  Unit style    : real
  Current step  : 2000
  Time step     : 1
Per MPI rank memory allocation (min/avg/max) = 3.625 | 3.626 | 3.627 Mbytes
Step Temp E_pair E_mol TotEng Press Volume Lx Ly Lz S/CPU 
    2000    305.13343   -10474.031            0   -9565.3958   -9649.8706    799.33679    9.2806116    9.2806116    9.2806116            0 
    2100    302.35023   -10476.264            0    -9575.917   -15394.441    797.44988    9.2733033    9.2733033    9.2733033    29.220117 
    2200    289.42637   -10447.724            0   -9585.8614   -12637.484    795.21637    9.2646376    9.2646376    9.2646376    28.705732 
    2300    296.02463   -10476.987            0   -9595.4762    2285.8865    793.21518    9.2568595    9.2568595    9.2568595    22.249385 
    2400    296.56224    -10487.29            0   -9604.1784   -5741.2951    791.33308    9.2495323    9.2495323    9.2495323    30.005754 
    2500    306.74564    -10524.44            0   -9611.0038    8612.4655    789.38834     9.241949     9.241949     9.241949    28.999306 
    2600    303.92773   -10524.226            0   -9619.1813   -6584.3785    787.72505    9.2354533    9.2354533    9.2354533    24.304809 
    2700    294.62219   -10501.497            0   -9624.1622    -21850.21    786.04584    9.2288862    9.2288862    9.2288862    26.043201 
    2800    294.31895   -10506.587            0   -9630.1558   -13036.035    783.95975    9.2207148    9.2207148    9.2207148    31.394179 
    2900    297.94152   -10521.965            0   -9634.7457   -3556.6276    781.81285      9.21229      9.21229      9.21229    27.852603 
    3000    298.72718    -10527.58            0   -9638.0215    7913.5799     780.0262    9.2052671    9.2052671    9.2052671    29.213166 
Loop time of 36.3344 on 4 procs for 1000 steps with 1000 atoms

Performance: 2.378 ns/day, 10.093 hours/ns, 27.522 timesteps/s
84.9% CPU use with 4 MPI tasks x no OpenMP threads

MPI task timing breakdown:
Section |  min time  |  avg time  |  max time  |%varavg| %total
---------------------------------------------------------------
Pair    | 9.2535     | 9.5424     | 9.902      |   8.9 | 26.26
Neigh   | 3.4574     | 3.6643     | 3.8493     |   7.3 | 10.08
Comm    | 1.2541     | 1.7987     | 2.2513     |  28.8 |  4.95
Output  | 14.64      | 16.299     | 21.268     |  71.1 | 44.86
Modify  | 0.043445   | 5.0137     | 6.673      | 128.2 | 13.80
Other   |            | 0.01674    |            |       |  0.05

Nlocal:    250 ave 260 max 245 min
Histogram: 2 0 1 0 0 0 0 0 0 1
Nghost:    3002.5 ave 3025 max 2967 min
Histogram: 1 0 0 0 0 0 0 2 0 1
Neighs:    0 ave 0 max 0 min
Histogram: 4 0 0 0 0 0 0 0 0 0
FullNghs:  75728.5 ave 79069 max 74074 min
Histogram: 1 2 0 0 0 0 0 0 0 1

Total # of neighbors = 302914
Ave neighs/atom = 302.914
Neighbor list builds = 1000
Dangerous builds not checked
Setting up Verlet run ...
  Unit style    : real
  Current step  : 3000
  Time step     : 1
Per MPI rank memory allocation (min/avg/max) = 3.625 | 3.626 | 3.627 Mbytes
Step Temp E_pair E_mol TotEng Press Volume Lx Ly Lz S/CPU 
    3000    298.72718    -10527.58            0   -9638.0215    7913.5799     780.0262    9.2052671    9.2052671    9.2052671            0 
    3100    284.87124    -10485.07            0   -9636.7716    19826.747    778.94958      9.20103      9.20103      9.20103    30.059506 
    3200    291.84117   -10504.357            0   -9635.3042    13447.159    779.32572    9.2025108    9.2025108    9.2025108    23.266457 
    3300    294.36845   -10508.336            0   -9631.7566    18180.564    780.69336    9.2078908    9.2078908    9.2078908    31.940059 
    3400    299.96908   -10519.493            0   -9626.2366    6666.3293     782.7898    9.2161256    9.2161256    9.2161256    23.406205 
    3500    302.78396   -10521.847            0   -9620.2076   -1254.1221    785.21189    9.2256213    9.2256213    9.2256213    27.712765 
    3600     302.3155    -10513.86            0    -9613.616    2262.0028     787.3647    9.2340449    9.2340449    9.2340449    31.598301 
    3700      304.949   -10514.599            0   -9606.5126   -3331.3463    789.07532    9.2407273    9.2407273    9.2407273    27.050912 
    3800    297.28383   -10485.653            0   -9600.3926   -9067.1624    790.32164    9.2455899    9.2455899    9.2455899    30.903751 
    3900    303.37414   -10497.151            0   -9593.7547   -18209.979    790.80489    9.2474739    9.2474739    9.2474739    25.221461 
    4000     301.5472    -10485.56            0   -9587.6043   -9615.2012    790.01053    9.2443765    9.2443765    9.2443765    31.223982 
Loop time of 35.9013 on 4 procs for 1000 steps with 1000 atoms

Performance: 2.407 ns/day, 9.973 hours/ns, 27.854 timesteps/s
85.2% CPU use with 4 MPI tasks x no OpenMP threads

MPI task timing breakdown:
Section |  min time  |  avg time  |  max time  |%varavg| %total
---------------------------------------------------------------
Pair    | 9.526      | 9.7284     | 10.051     |   6.9 | 27.10
Neigh   | 3.5647     | 3.6935     | 3.8013     |   5.1 | 10.29
Comm    | 1.4114     | 1.8415     | 2.1606     |  22.7 |  5.13
Output  | 14.133     | 15.745     | 20.577     |  70.3 | 43.86
Modify  | 0.043179   | 4.8759     | 6.4898     | 126.4 | 13.58
Other   |            | 0.01673    |            |       |  0.05

Nlocal:    250 ave 256 max 244 min
Histogram: 1 0 0 1 0 0 1 0 0 1
Nghost:    2965.75 ave 2997 max 2938 min
Histogram: 1 0 0 1 0 1 0 0 0 1
Neighs:    0 ave 0 max 0 min
Histogram: 4 0 0 0 0 0 0 0 0 0
FullNghs:  74711.5 ave 76950 max 72672 min
Histogram: 1 0 0 1 0 1 0 0 0 1

Total # of neighbors = 298846
Ave neighs/atom = 298.846
Neighbor list builds = 1000
Dangerous builds not checked
Setting up Verlet run ...
  Unit style    : real
  Current step  : 4000
  Time step     : 1
Per MPI rank memory allocation (min/avg/max) = 3.625 | 3.626 | 3.627 Mbytes
Step Temp E_pair E_mol TotEng Press Volume Lx Ly Lz S/CPU 
    4000     301.5472    -10485.56            0   -9587.6043   -9615.2012    790.01053    9.2443765    9.2443765    9.2443765            0 
    4100    298.88581   -10471.644            0    -9581.613   -11247.611    788.35662    9.2379209    9.2379209    9.2379209    31.954771 
    4200    305.96652   -10487.267            0    -9576.151    562.76065    786.30051    9.2298828    9.2298828    9.2298828    27.777727 
    4300    307.08129   -10485.469            0   -9571.0335    14001.966    784.60493    9.2232436    9.2232436    9.2232436    31.212236 
    4400    299.70897   -10458.145            0   -9565.6631    25223.157    783.73956    9.2198514    9.2198514    9.2198514    31.247411 
    4500    297.36604   -10448.902            0   -9563.3963    20770.317    783.80611    9.2201124    9.2201124    9.2201124    28.559815 
    4600     300.0948   -10455.914            0   -9562.2824    12972.537    784.75966    9.2238498    9.2238498    9.2238498    26.323289 
    4700    319.90931   -10517.102            0   -9564.4667    1241.8069    786.43316    9.2304018    9.2304018    9.2304018    30.381096 
    4800    306.57746   -10480.371            0   -9567.4356   -2601.6243    788.27885    9.2376171    9.2376171    9.2376171    28.109669 
    4900    296.43627   -10456.236            0   -9573.4997    6464.6534    790.21152    9.2451604    9.2451604    9.2451604    26.552578 
    5000    305.25704   -10490.336            0   -9581.3326   -15587.616    792.25078    9.2531064    9.2531064    9.2531064    25.785731 
Loop time of 34.9272 on 4 procs for 1000 steps with 1000 atoms

Performance: 2.474 ns/day, 9.702 hours/ns, 28.631 timesteps/s
85.4% CPU use with 4 MPI tasks x no OpenMP threads

MPI task timing breakdown:
Section |  min time  |  avg time  |  max time  |%varavg| %total
---------------------------------------------------------------
Pair    | 9.3909     | 9.5159     | 9.8555     |   6.4 | 27.24
Neigh   | 3.5534     | 3.6379     | 3.7714     |   4.6 | 10.42
Comm    | 1.5723     | 2.0375     | 2.24       |  19.0 |  5.83
Output  | 13.979     | 15.402     | 19.668     |  62.8 | 44.10
Modify  | 0.042644   | 4.3167     | 5.7494     | 118.8 | 12.36
Other   |            | 0.0167     |            |       |  0.05

Nlocal:    250 ave 252 max 248 min
Histogram: 1 0 1 0 0 0 0 1 0 1
Nghost:    2970 ave 2991 max 2954 min
Histogram: 2 0 0 0 0 0 0 1 0 1
Neighs:    0 ave 0 max 0 min
Histogram: 4 0 0 0 0 0 0 0 0 0
FullNghs:  74543.5 ave 75203 max 73969 min
Histogram: 2 0 0 0 0 0 0 1 0 1

Total # of neighbors = 298174
Ave neighs/atom = 298.174
Neighbor list builds = 1000
Dangerous builds not checked
Setting up Verlet run ...
  Unit style    : real
  Current step  : 5000
  Time step     : 1
Per MPI rank memory allocation (min/avg/max) = 3.625 | 3.626 | 3.627 Mbytes
Step Temp E_pair E_mol TotEng Press Volume Lx Ly Lz S/CPU 
    5000    305.25704   -10490.336            0   -9581.3326   -15587.616    792.25078    9.2531064    9.2531064    9.2531064            0 
    5100    301.03662    -10489.19            0   -9592.7539   -5626.5197    793.65299    9.2585623    9.2585623    9.2585623    28.528296 
    5200    309.83265   -10528.733            0   -9606.1038   -13125.194    794.44662    9.2616473    9.2616473    9.2616473    30.159741 
    5300     301.6383   -10516.215            0   -9617.9881   -4730.9586    794.60794    9.2622742    9.2622742    9.2622742    31.658288 
    5400    295.71711   -10509.247            0   -9628.6518    3296.9911    794.58581    9.2621882    9.2621882    9.2621882    30.418606 
    5500     289.9788   -10499.787            0   -9636.2794   -9600.5131    794.18203     9.260619     9.260619     9.260619    28.220127 
    5600    291.80888   -10510.862            0   -9641.9049   -16281.593    792.58943    9.2544247    9.2544247    9.2544247    28.010669 
    5700    296.58029   -10526.816            0   -9643.6509   -12316.883    790.07807      9.24464      9.24464      9.24464     32.27849 
    5800    299.93017   -10537.875            0   -9644.7341   -11335.777    786.72456    9.2315417    9.2315417    9.2315417    24.856999 
    5900    288.94029   -10503.422            0    -9643.007    -831.1879    782.81673    9.2162313    9.2162313    9.2162313    33.431878 
    6000    291.58643   -10507.624            0   -9639.3298    7382.9924    778.63075    9.1997745    9.1997745    9.1997745    28.713466 
Loop time of 33.9757 on 4 procs for 1000 steps with 1000 atoms

Performance: 2.543 ns/day, 9.438 hours/ns, 29.433 timesteps/s
85.6% CPU use with 4 MPI tasks x no OpenMP threads

MPI task timing breakdown:
Section |  min time  |  avg time  |  max time  |%varavg| %total
---------------------------------------------------------------
Pair    | 9.0983     | 9.5389     | 9.9564     |  10.6 | 28.08
Neigh   | 3.493      | 3.6755     | 3.7999     |   5.9 | 10.82
Comm    | 1.3553     | 1.8946     | 2.5149     |  31.4 |  5.58
Output  | 12.596     | 14.148     | 18.798     |  71.4 | 41.64
Modify  | 0.047968   | 4.7012     | 6.2566     | 123.9 | 13.84
Other   |            | 0.01718    |            |       |  0.05

Nlocal:    250 ave 255 max 241 min
Histogram: 1 0 0 0 0 0 1 0 0 2
Nghost:    2998.5 ave 3021 max 2971 min
Histogram: 1 0 1 0 0 0 0 0 0 2
Neighs:    0 ave 0 max 0 min
Histogram: 4 0 0 0 0 0 0 0 0 0
FullNghs:  75818.5 ave 77768 max 72544 min
Histogram: 1 0 0 0 0 0 1 0 0 2

Total # of neighbors = 303274
Ave neighs/atom = 303.274
Neighbor list builds = 1000
Dangerous builds not checked
Setting up Verlet run ...
  Unit style    : real
  Current step  : 6000
  Time step     : 1
Per MPI rank memory allocation (min/avg/max) = 3.626 | 3.626 | 3.627 Mbytes
Step Temp E_pair E_mol TotEng Press Volume Lx Ly Lz S/CPU 
    6000    291.58643   -10507.624            0   -9639.3298    7382.9924    778.63075    9.1997745    9.1997745    9.1997745            0 
    6100    292.40528   -10504.296            0   -9633.5628    14703.778    775.06701    9.1857175    9.1857175    9.1857175    27.173379 
    6200    287.93225   -10485.407            0   -9627.9944    13294.739    772.68805    9.1763097    9.1763097    9.1763097    26.232297 
    6300    297.66365   -10509.548            0    -9623.157    25316.468    771.71152    9.1724424    9.1724424    9.1724424    31.241253 
    6400     299.7631   -10511.949            0   -9619.3056    24440.409      772.254    9.1745912    9.1745912    9.1745912    28.604322 
    6500    311.54005    -10544.54            0   -9616.8272    14440.568    774.01008    9.1815402    9.1815402    9.1815402     32.62249 
    6600    310.58415   -10540.424            0   -9615.5574    2641.4373    776.78135     9.192485     9.192485     9.192485    24.804659 
    6700      307.398   -10529.771            0   -9614.3926     8070.256    780.61718    9.2075913    9.2075913    9.2075913    31.239737 
    6800    310.84889   -10540.463            0   -9614.8083   -9146.7451    784.89941    9.2243973    9.2243973    9.2243973    28.360289 
    6900    315.22455   -10552.722            0   -9614.0371   -24730.618    788.42798    9.2381996    9.2381996    9.2381996    29.291684 
    7000    308.80626   -10534.417            0   -9614.8445    -17650.86      790.633    9.2468039    9.2468039    9.2468039    30.218854 
Loop time of 34.7363 on 4 procs for 1000 steps with 1000 atoms

Performance: 2.487 ns/day, 9.649 hours/ns, 28.788 timesteps/s
85.6% CPU use with 4 MPI tasks x no OpenMP threads

MPI task timing breakdown:
Section |  min time  |  avg time  |  max time  |%varavg| %total
---------------------------------------------------------------
Pair    | 9.4972     | 9.7807     | 10.427     |  12.1 | 28.16
Neigh   | 3.5922     | 3.6816     | 3.8847     |   6.2 | 10.60
Comm    | 1.0797     | 1.9291     | 2.2697     |  35.5 |  5.55
Output  | 12.682     | 14.334     | 19.284     |  75.5 | 41.27
Modify  | 0.043203   | 4.9938     | 6.6466     | 127.9 | 14.38
Other   |            | 0.01702    |            |       |  0.05

Nlocal:    250 ave 252 max 248 min
Histogram: 1 0 1 0 0 0 0 1 0 1
Nghost:    2994.5 ave 3014 max 2971 min
Histogram: 1 0 0 0 1 0 0 1 0 1
Neighs:    0 ave 0 max 0 min
Histogram: 4 0 0 0 0 0 0 0 0 0
FullNghs:  74680 ave 75780 max 73916 min
Histogram: 1 0 0 2 0 0 0 0 0 1

Total # of neighbors = 298720
Ave neighs/atom = 298.72
Neighbor list builds = 1000
Dangerous builds not checked
Setting up Verlet run ...
  Unit style    : real
  Current step  : 7000
  Time step     : 1
Per MPI rank memory allocation (min/avg/max) = 3.626 | 3.626 | 3.627 Mbytes
Step Temp E_pair E_mol TotEng Press Volume Lx Ly Lz S/CPU 
    7000    308.80626   -10534.417            0   -9614.8445    -17650.86      790.633    9.2468039    9.2468039    9.2468039            0 
    7100    295.89242   -10496.271            0   -9615.1534    -801.5234    791.55435    9.2503943    9.2503943    9.2503943    25.954152 
    7200     307.2952   -10531.472            0   -9616.3996   -5360.1605    791.77425    9.2512509    9.2512509    9.2512509    32.634281 
    7300    294.77009    -10494.18            0   -9616.4048   -2036.5131     791.1977    9.2490048    9.2490048    9.2490048    26.021842 
    7400    299.26298   -10508.669            0   -9617.5148   -22965.259    790.11663    9.2447904    9.2447904    9.2447904    29.626781 
    7500    290.05458   -10482.787            0   -9619.0543   -9133.6387     788.5732    9.2387668    9.2387668    9.2387668    27.213263 
    7600    293.39734   -10496.607            0   -9622.9198   -7544.4827    786.34526    9.2300579    9.2300579    9.2300579    24.795541 
    7700    292.86351   -10498.153            0    -9626.055    4003.0015    784.06883    9.2211424    9.2211424    9.2211424    22.183722 
    7800    291.46627   -10500.324            0   -9632.3872   -1897.3107    782.18718    9.2137601    9.2137601    9.2137601    31.810718 
    7900    291.75497   -10508.539            0   -9639.7426   -9461.0285    780.29479    9.2063236    9.2063236    9.2063236    25.630177 
    8000     298.9673   -10538.709            0   -9648.4351   -7078.8532    778.16328    9.1979331    9.1979331    9.1979331    31.723102 
Loop time of 36.5485 on 4 procs for 1000 steps with 1000 atoms

Performance: 2.364 ns/day, 10.152 hours/ns, 27.361 timesteps/s
84.9% CPU use with 4 MPI tasks x no OpenMP threads

MPI task timing breakdown:
Section |  min time  |  avg time  |  max time  |%varavg| %total
---------------------------------------------------------------
Pair    | 9.2434     | 9.6363     | 10.152     |  11.0 | 26.37
Neigh   | 3.5374     | 3.6938     | 3.8531     |   6.3 | 10.11
Comm    | 1.1833     | 1.8597     | 2.4101     |  33.8 |  5.09
Output  | 14.967     | 16.55      | 21.295     |  67.3 | 45.28
Modify  | 0.047375   | 4.7915     | 6.3748     | 125.1 | 13.11
Other   |            | 0.01692    |            |       |  0.05

Nlocal:    250 ave 257 max 246 min
Histogram: 1 1 1 0 0 0 0 0 0 1
Nghost:    3007.75 ave 3031 max 2975 min
Histogram: 1 0 0 0 0 0 2 0 0 1
Neighs:    0 ave 0 max 0 min
Histogram: 4 0 0 0 0 0 0 0 0 0
FullNghs:  75849 ave 78372 max 74295 min
Histogram: 1 1 0 1 0 0 0 0 0 1

Total # of neighbors = 303396
Ave neighs/atom = 303.396
Neighbor list builds = 1000
Dangerous builds not checked
Setting up Verlet run ...
  Unit style    : real
  Current step  : 8000
  Time step     : 1
Per MPI rank memory allocation (min/avg/max) = 3.626 | 3.626 | 3.627 Mbytes
Step Temp E_pair E_mol TotEng Press Volume Lx Ly Lz S/CPU 
    8000     298.9673   -10538.709            0   -9648.4351   -7078.8532    778.16328    9.1979331    9.1979331    9.1979331            0 
    8100     285.1223   -10504.484            0   -9655.4388    12282.687    775.78797    9.1885648    9.1885648    9.1885648    28.382899 
    8200    287.20363   -10517.438            0   -9662.1948    6847.3149    773.69113    9.1802788    9.1802788    9.1802788     29.75995 
    8300    291.24913   -10534.988            0   -9667.6981    7323.5093    772.25349    9.1745892    9.1745892    9.1745892    28.337628 
    8400    295.90741   -10553.632            0   -9672.4703   -7836.5217    771.42119     9.171292     9.171292     9.171292    29.232483 
    8500    303.14542   -10577.532            0   -9674.8171    2781.6695    770.90839    9.1692594    9.1692594    9.1692594    30.965475 
    8600    280.83488   -10512.991            0   -9676.7126    3742.9763    771.05471    9.1698394    9.1698394    9.1698394    27.942154 
    8700    299.68097    -10570.46            0   -9678.0616    1024.6716    771.67866    9.1723122    9.1723122    9.1723122    25.734562 
    8800    290.27957   -10541.063            0   -9676.6605   -879.13879    772.53979    9.1757228    9.1757228    9.1757228    29.106287 
    8900    293.61763   -10548.195            0   -9673.8518    3346.9833    773.59619    9.1799033    9.1799033    9.1799033    29.034736 
    9000    287.73746   -10525.642            0   -9668.8094   -5792.2698     775.1763    9.1861492    9.1861492    9.1861492    29.837236 
Loop time of 34.7586 on 4 procs for 1000 steps with 1000 atoms

Performance: 2.486 ns/day, 9.655 hours/ns, 28.770 timesteps/s
85.8% CPU use with 4 MPI tasks x no OpenMP threads

MPI task timing breakdown:
Section |  min time  |  avg time  |  max time  |%varavg| %total
---------------------------------------------------------------
Pair    | 9.7856     | 9.9389     | 10.339     |   7.4 | 28.59
Neigh   | 3.6027     | 3.6946     | 3.8169     |   4.2 | 10.63
Comm    | 1.4322     | 1.9546     | 2.1993     |  21.9 |  5.62
Output  | 13.155     | 14.644     | 19.104     |  67.3 | 42.13
Modify  | 0.048583   | 4.51       | 5.9996     | 121.3 | 12.98
Other   |            | 0.01689    |            |       |  0.05

Nlocal:    250 ave 257 max 242 min
Histogram: 1 0 1 0 0 0 0 0 0 2
Nghost:    3006.25 ave 3019 max 2995 min
Histogram: 1 0 1 0 0 0 1 0 0 1
Neighs:    0 ave 0 max 0 min
Histogram: 4 0 0 0 0 0 0 0 0 0
FullNghs:  76202 ave 78369 max 73877 min
Histogram: 1 1 0 0 0 0 0 0 0 2

Total # of neighbors = 304808
Ave neighs/atom = 304.808
Neighbor list builds = 1000
Dangerous builds not checked
Setting up Verlet run ...
  Unit style    : real
  Current step  : 9000
  Time step     : 1
Per MPI rank memory allocation (min/avg/max) = 3.626 | 3.626 | 3.627 Mbytes
Step Temp E_pair E_mol TotEng Press Volume Lx Ly Lz S/CPU 
    9000    287.73746   -10525.642            0   -9668.8094   -5792.2698     775.1763    9.1861492    9.1861492    9.1861492            0 
    9100    302.05526   -10562.355            0   -9662.8859    11272.036    776.85084    9.1927591    9.1927591    9.1927591    24.552403 
    9200    297.23162   -10538.401            0   -9653.2959    2488.5549    778.53098    9.1993816    9.1993816    9.1993816    24.135905 
    9300    301.82955   -10540.886            0   -9642.0896   -8763.9837    780.25726     9.206176     9.206176     9.206176    27.410839 
    9400    299.96313   -10524.639            0   -9631.4004    725.80986    781.90039    9.2126338    9.2126338    9.2126338    25.335852 
    9500    301.95923   -10519.755            0   -9620.5717   -6108.8521    783.27144    9.2180154    9.2180154    9.2180154       30.445 
    9600    285.90114   -10463.066            0   -9611.7011   -15533.701    784.28964     9.222008     9.222008     9.222008    29.919829 
    9700    301.86872   -10503.478            0   -9604.5645   -8106.2731    784.80007    9.2240081    9.2240081    9.2240081     27.31668 
    9800    298.63556   -10486.485            0    -9597.199    8213.0336    784.78548     9.223951     9.223951     9.223951    29.734535 
    9900    301.84232   -10492.079            0   -9593.2442   -11399.687    784.26764    9.2219217    9.2219217    9.2219217    25.595659 
   10000    300.44421    -10483.36            0   -9588.6881   -12995.513    782.72326    9.2158645    9.2158645    9.2158645    30.309755 
Loop time of 36.6682 on 4 procs for 1000 steps with 1000 atoms

Performance: 2.356 ns/day, 10.186 hours/ns, 27.272 timesteps/s
85.0% CPU use with 4 MPI tasks x no OpenMP threads

MPI task timing breakdown:
Section |  min time  |  avg time  |  max time  |%varavg| %total
---------------------------------------------------------------
Pair    | 9.4041     | 9.7156     | 10.205     |   9.6 | 26.50
Neigh   | 3.5388     | 3.6768     | 3.8101     |   5.2 | 10.03
Comm    | 1.3195     | 1.9415     | 2.3897     |  27.9 |  5.29
Output  | 14.44      | 16.149     | 21.271     |  73.6 | 44.04
Modify  | 0.045007   | 5.1683     | 6.8797     | 130.1 | 14.09
Other   |            | 0.01673    |            |       |  0.05

Nlocal:    250 ave 255 max 246 min
Histogram: 1 0 1 0 0 1 0 0 0 1
Nghost:    3039.75 ave 3050 max 3026 min
Histogram: 1 0 0 0 0 1 0 1 0 1
Neighs:    0 ave 0 max 0 min
Histogram: 4 0 0 0 0 0 0 0 0 0
FullNghs:  75345.5 ave 77131 max 73852 min
Histogram: 1 0 0 1 1 0 0 0 0 1

Total # of neighbors = 301382
Ave neighs/atom = 301.382
Neighbor list builds = 1000
Dangerous builds not checked
Setting up Verlet run ...
  Unit style    : real
  Current step  : 10000
  Time step     : 1
Per MPI rank memory allocation (min/avg/max) = 3.626 | 3.626 | 3.627 Mbytes
Step Temp E_pair E_mol TotEng Press Volume Lx Ly Lz S/CPU 
   10000    300.44421    -10483.36            0   -9588.6881   -12995.513    782.72326    9.2158645    9.2158645    9.2158645            0 
   10100    291.74265   -10454.098            0   -9585.3383   -3489.3764    780.15383    9.2057692    9.2057692    9.2057692    25.656797 
   10200    294.98583   -10459.734            0   -9581.3171    5195.7084    777.56323    9.1955682    9.1955682    9.1955682    28.064875 
   10300    299.47568   -10469.528            0   -9577.7402    2156.8326    775.59685    9.1878101    9.1878101    9.1878101    27.632434 
   10400     310.2438   -10499.542            0   -9575.6891    253.14415    774.24555    9.1824712    9.1824712    9.1824712    26.786043 
   10500    305.18543   -10482.876            0   -9574.0856    22909.702    773.24305    9.1785062    9.1785062    9.1785062    32.939994 
   10600    307.02403   -10489.437            0   -9575.1717    19955.148    773.32387     9.178826     9.178826     9.178826    25.383594 
   10700    300.07716   -10470.052            0   -9576.4735    25329.111    774.44775    9.1832704    9.1832704    9.1832704    25.250086 
   10800    314.19045   -10514.049            0   -9578.4439    18806.581    777.12571    9.1938432    9.1938432    9.1938432    31.709069 
   10900    298.00003     -10468.8            0   -9581.4072    6735.2417    780.79478    9.2082895    9.2082895    9.2082895    25.701594 
   11000    303.01147   -10488.199            0   -9585.8826   -14165.676    784.76357    9.2238651    9.2238651    9.2238651    31.288678 
Loop time of 35.9893 on 4 procs for 1000 steps with 1000 atoms

Performance: 2.401 ns/day, 9.997 hours/ns, 27.786 timesteps/s
85.3% CPU use with 4 MPI tasks x no OpenMP threads

MPI task timing breakdown:
Section |  min time  |  avg time  |  max time  |%varavg| %total
---------------------------------------------------------------
Pair    | 9.6969     | 9.8763     | 10.192     |   6.1 | 27.44
Neigh   | 3.6115     | 3.6934     | 3.8108     |   4.1 | 10.26
Comm    | 1.4705     | 1.9037     | 2.1142     |  18.5 |  5.29
Output  | 13.422     | 15.181     | 20.453     |  78.1 | 42.18
Modify  | 0.045952   | 5.3177     | 7.0775     | 132.0 | 14.78
Other   |            | 0.01686    |            |       |  0.05

Nlocal:    250 ave 256 max 245 min
Histogram: 1 0 0 1 1 0 0 0 0 1
Nghost:    2980 ave 3002 max 2957 min
Histogram: 1 1 0 0 0 0 0 0 0 2
Neighs:    0 ave 0 max 0 min
Histogram: 4 0 0 0 0 0 0 0 0 0
FullNghs:  75143 ave 77139 max 73315 min
Histogram: 1 0 0 1 0 1 0 0 0 1

Total # of neighbors = 300572
Ave neighs/atom = 300.572
Neighbor list builds = 1000
Dangerous builds not checked
Setting up Verlet run ...
  Unit style    : real
  Current step  : 11000
  Time step     : 1
Per MPI rank memory allocation (min/avg/max) = 3.626 | 3.626 | 3.627 Mbytes
Step Temp E_pair E_mol TotEng Press Volume Lx Ly Lz S/CPU 
   11000    303.01147   -10488.199            0   -9585.8826   -14165.676    784.76357    9.2238651    9.2238651    9.2238651            0 
   11100    303.31342   -10494.796            0   -9591.5805    -1994.572    788.39251    9.2380611    9.2380611    9.2380611    29.508101 
   11200    304.04579    -10503.84            0    -9598.444   -20077.948    791.49617    9.2501677    9.2501677    9.2501677     29.74603 
   11300    295.12414   -10485.949            0   -9607.1201   -11710.647    793.67927    9.2586645    9.2586645    9.2586645    33.172074 
   11400    284.68126   -10466.363            0   -9618.6307   -15586.272    794.76506    9.2628847    9.2628847    9.2628847    31.880932 
   11500    297.06626   -10519.281            0   -9634.6688   -20073.634    794.88763    9.2633608    9.2633608    9.2633608    33.512625 
   11600    301.60876   -10550.218            0    -9652.079   -7949.9353    794.12565    9.2603999    9.2603999    9.2603999    31.078982 
   11700    288.61817   -10524.198            0   -9664.7421   -1649.8551    792.65599    9.2546837    9.2546837    9.2546837    28.400561 
   11800    294.56734   -10552.127            0   -9674.9563   -9034.8984    790.51455     9.246342     9.246342     9.246342    26.083754 
   11900    284.21474   -10526.158            0   -9679.8152    9782.8664    788.14193    9.2370823    9.2370823    9.2370823     30.85175 
   12000    285.19905   -10530.834            0   -9681.5597    8116.9026    785.81908    9.2279987    9.2279987    9.2279987    31.744984 
Loop time of 32.8498 on 4 procs for 1000 steps with 1000 atoms

Performance: 2.630 ns/day, 9.125 hours/ns, 30.442 timesteps/s
85.9% CPU use with 4 MPI tasks x no OpenMP threads

MPI task timing breakdown:
Section |  min time  |  avg time  |  max time  |%varavg| %total
---------------------------------------------------------------
Pair    | 8.9777     | 9.4386     | 9.7823     |   9.9 | 28.73
Neigh   | 3.5449     | 3.6453     | 3.8049     |   5.5 | 11.10
Comm    | 1.2845     | 1.7864     | 2.3462     |  29.9 |  5.44
Output  | 11.919     | 13.418     | 17.908     |  70.8 | 40.85
Modify  | 0.052034   | 4.545      | 6.0462     | 121.7 | 13.84
Other   |            | 0.01665    |            |       |  0.05

Nlocal:    250 ave 257 max 242 min
Histogram: 1 0 0 0 0 1 1 0 0 1
Nghost:    2981 ave 3010 max 2954 min
Histogram: 1 1 0 0 0 0 0 0 1 1
Neighs:    0 ave 0 max 0 min
Histogram: 4 0 0 0 0 0 0 0 0 0
FullNghs:  75190 ave 77723 max 72259 min
Histogram: 1 0 0 0 0 2 0 0 0 1

Total # of neighbors = 300760
Ave neighs/atom = 300.76
Neighbor list builds = 1000
Dangerous builds not checked
Setting up Verlet run ...
  Unit style    : real
  Current step  : 12000
  Time step     : 1
Per MPI rank memory allocation (min/avg/max) = 3.626 | 3.626 | 3.627 Mbytes
Step Temp E_pair E_mol TotEng Press Volume Lx Ly Lz S/CPU 
   12000    285.19905   -10530.834            0   -9681.5597    8116.9026    785.81908    9.2279987    9.2279987    9.2279987            0 
   12100     290.8698    -10547.87            0   -9681.7091    1575.1712    783.95335    9.2206897    9.2206897    9.2206897    25.560347 
   12200    285.94098   -10530.416            0   -9678.9322   -725.77817    782.28419     9.214141     9.214141     9.214141    25.777592 
   12300    292.30533   -10545.663            0   -9675.2276    1976.6911    780.99741    9.2090861    9.2090861    9.2090861    25.708752 
   12400    294.80839   -10547.703            0   -9669.8141     14366.81    780.27973    9.2062644    9.2062644    9.2062644    29.797606 
   12500    289.91324   -10526.683            0   -9663.3704    38373.931    780.31463    9.2064016    9.2064016    9.2064016    29.681585 
   12600    290.63737   -10523.599            0   -9658.1304     3178.301    781.54925    9.2112546    9.2112546    9.2112546     30.24709 
   12700    295.28685   -10530.894            0   -9651.5801   -1470.5362    782.93074    9.2166787    9.2166787    9.2166787    25.915204 
   12800    297.48078   -10530.892            0   -9645.0454   -6913.6492    784.17055    9.2215412    9.2215412    9.2215412    31.897808 
   12900    304.15663   -10543.698            0   -9637.9716    2408.4455    785.03823    9.2249411    9.2249411    9.2249411     30.81057 
   13000    300.74159   -10528.874            0    -9633.317    1095.7777    785.83983    9.2280799    9.2280799    9.2280799    33.000645 
Loop time of 34.9822 on 4 procs for 1000 steps with 1000 atoms

Performance: 2.470 ns/day, 9.717 hours/ns, 28.586 timesteps/s
85.4% CPU use with 4 MPI tasks x no OpenMP threads

MPI task timing breakdown:
Section |  min time  |  avg time  |  max time  |%varavg| %total
---------------------------------------------------------------
Pair    | 9.531      | 9.7078     | 10.156     |   8.4 | 27.75
Neigh   | 3.5682     | 3.6788     | 3.8437     |   5.4 | 10.52
Comm    | 1.299      | 1.9087     | 2.1862     |  25.7 |  5.46
Output  | 13.605     | 15.112     | 19.625     |  67.0 | 43.20
Modify  | 0.041612   | 4.5586     | 6.0687     | 122.1 | 13.03
Other   |            | 0.01673    |            |       |  0.05

Nlocal:    250 ave 257 max 243 min
Histogram: 1 0 1 0 0 0 0 1 0 1
Nghost:    2971 ave 2990 max 2946 min
Histogram: 1 0 0 0 0 1 0 1 0 1
Neighs:    0 ave 0 max 0 min
Histogram: 4 0 0 0 0 0 0 0 0 0
FullNghs:  75093.5 ave 77431 max 72537 min
Histogram: 1 0 0 1 0 0 1 0 0 1

Total # of neighbors = 300374
Ave neighs/atom = 300.374
Neighbor list builds = 1000
Dangerous builds not checked
Setting up Verlet run ...
  Unit style    : real
  Current step  : 13000
  Time step     : 1
Per MPI rank memory allocation (min/avg/max) = 3.626 | 3.626 | 3.627 Mbytes
Step Temp E_pair E_mol TotEng Press Volume Lx Ly Lz S/CPU 
   13000    300.74159   -10528.874            0    -9633.317    1095.7777    785.83983    9.2280799    9.2280799    9.2280799            0 
   13100    296.71957     -10513.4            0   -9629.8199   -8491.5093    786.55625    9.2308833    9.2308833    9.2308833    24.485056 
   13200    299.11245    -10517.51            0   -9626.8044    681.33024     787.0273    9.2327257    9.2327257    9.2327257     33.65164 
   13300    302.65592     -10525.8            0   -9624.5426   -3908.2432    787.40583    9.2342056    9.2342056    9.2342056    29.414121 
   13400     304.2509   -10528.227            0   -9622.2198   -1726.1307    787.77153     9.235635     9.235635     9.235635    32.024339 
   13500    301.60688   -10517.365            0   -9619.2314   -13267.241    788.20904    9.2373444    9.2373444    9.2373444    29.701655 
   13600    309.38201   -10539.219            0   -9617.9325   -14377.102    788.30611    9.2377236    9.2377236    9.2377236    25.281001 
   13700    294.80577   -10493.103            0   -9615.2217   -6539.4721    787.73156    9.2354788    9.2354788    9.2354788    32.258091 
   13800    296.27154   -10497.158            0   -9614.9122   -8374.2661    786.68157    9.2313735    9.2313735    9.2313735     24.24398 
   13900    297.53318    -10499.38            0   -9613.3769    414.65456    785.36513    9.2262214    9.2262214    9.2262214    29.136181 
   14000    304.99853   -10521.478            0   -9613.2446   -4412.7528    783.89317    9.2204537    9.2204537    9.2204537     29.90027 
Loop time of 34.9018 on 4 procs for 1000 steps with 1000 atoms

Performance: 2.476 ns/day, 9.695 hours/ns, 28.652 timesteps/s
85.4% CPU use with 4 MPI tasks x no OpenMP threads

MPI task timing breakdown:
Section |  min time  |  avg time  |  max time  |%varavg| %total
---------------------------------------------------------------
Pair    | 9.3012     | 9.7126     | 10.126     |  11.2 | 27.83
Neigh   | 3.5709     | 3.7196     | 3.8658     |   5.7 | 10.66
Comm    | 1.2229     | 1.7816     | 2.2364     |  33.5 |  5.10
Output  | 13.795     | 15.254     | 19.625     |  64.6 | 43.70
Modify  | 0.044509   | 4.4174     | 5.8778     | 120.1 | 12.66
Other   |            | 0.01692    |            |       |  0.05

Nlocal:    250 ave 259 max 244 min
Histogram: 1 0 1 1 0 0 0 0 0 1
Nghost:    2997 ave 3033 max 2948 min
Histogram: 1 0 0 0 0 1 0 1 0 1
Neighs:    0 ave 0 max 0 min
Histogram: 4 0 0 0 0 0 0 0 0 0
FullNghs:  75393 ave 78465 max 73307 min
Histogram: 1 0 1 1 0 0 0 0 0 1

Total # of neighbors = 301572
Ave neighs/atom = 301.572
Neighbor list builds = 1000
Dangerous builds not checked
Setting up Verlet run ...
  Unit style    : real
  Current step  : 14000
  Time step     : 1
Per MPI rank memory allocation (min/avg/max) = 3.626 | 3.626 | 3.627 Mbytes
Step Temp E_pair E_mol TotEng Press Volume Lx Ly Lz S/CPU 
   14000    304.99853   -10521.478            0   -9613.2446   -4412.7528    783.89317    9.2204537    9.2204537    9.2204537            0 
   14100    296.93372   -10497.726            0   -9613.5078    8855.7214    782.71259    9.2158226    9.2158226    9.2158226    28.755852 
   14200    298.69432   -10502.687            0   -9613.2268    17822.993    782.55959    9.2152221    9.2152221    9.2152221    29.160071 
   14300    304.60783   -10522.374            0    -9615.304    11129.781    783.49951      9.21891      9.21891      9.21891    26.123642 
   14400    299.35933   -10512.105            0   -9620.6645    15578.917     785.2181    9.2256456    9.2256456    9.2256456    25.515869 
   14500    296.06454   -10513.703            0   -9632.0737   -6090.5502    787.62428    9.2350595    9.2350595    9.2350595    28.607482 
   14600    295.53521   -10527.933            0   -9647.8796   -11440.788    789.86401     9.243805     9.243805     9.243805     31.40472 
   14700    298.18323    -10552.72            0   -9664.7816   -14105.728    791.67389      9.25086      9.25086      9.25086    32.068153 
   14800    287.00861   -10531.929            0   -9677.2668    2656.1369     793.0996    9.2564099    9.2564099    9.2564099    30.992188 
   14900    293.66707   -10562.585            0   -9688.0943   -2443.2649    793.94986    9.2597166    9.2597166    9.2597166    33.046582 
   15000    299.38071   -10586.359            0   -9694.8548   -24378.832    794.20865    9.2607225    9.2607225    9.2607225    24.790437 
Loop time of 34.7387 on 4 procs for 1000 steps with 1000 atoms

Performance: 2.487 ns/day, 9.650 hours/ns, 28.786 timesteps/s
85.4% CPU use with 4 MPI tasks x no OpenMP threads

MPI task timing breakdown:
Section |  min time  |  avg time  |  max time  |%varavg| %total
---------------------------------------------------------------
Pair    | 9.0598     | 9.5014     | 9.953      |  11.8 | 27.35
Neigh   | 3.5085     | 3.6505     | 3.762      |   4.9 | 10.51
Comm    | 1.4202     | 1.9148     | 2.3692     |  31.2 |  5.51
Output  | 13.402     | 14.956     | 19.61      |  69.5 | 43.05
Modify  | 0.043145   | 4.6995     | 6.2546     | 124.0 | 13.53
Other   |            | 0.01674    |            |       |  0.05

Nlocal:    250 ave 256 max 243 min
Histogram: 1 0 0 1 0 0 0 1 0 1
Nghost:    2959 ave 2980 max 2934 min
Histogram: 1 0 0 1 0 0 0 0 1 1
Neighs:    0 ave 0 max 0 min
Histogram: 4 0 0 0 0 0 0 0 0 0
FullNghs:  74353 ave 76232 max 71782 min
Histogram: 1 0 0 0 1 0 0 0 0 2

Total # of neighbors = 297412
Ave neighs/atom = 297.412
Neighbor list builds = 1000
Dangerous builds not checked
Setting up Verlet run ...
  Unit style    : real
  Current step  : 15000
  Time step     : 1
Per MPI rank memory allocation (min/avg/max) = 3.626 | 3.626 | 3.627 Mbytes
Step Temp E_pair E_mol TotEng Press Volume Lx Ly Lz S/CPU 
   15000    299.38071   -10586.359            0   -9694.8548   -24378.832    794.20865    9.2607225    9.2607225    9.2607225            0 
   15100    288.58905   -10556.779            0   -9697.4102   -1821.3162     793.5506    9.2581641    9.2581641    9.2581641    31.747286 
   15200    289.81923    -10563.54            0   -9700.5079   -11027.602    792.40175    9.2536942    9.2536942    9.2536942    29.781023 
   15300    288.42875   -10558.018            0    -9699.126   -603.36295    790.29614    9.2454904    9.2454904    9.2454904    28.283296 
   15400    283.41381   -10539.475            0   -9695.5168   -3988.1761    787.77498    9.2356485    9.2356485    9.2356485    31.166709 
   15500    290.73159   -10555.286            0   -9689.5373    2334.3284    785.37769    9.2262706    9.2262706    9.2262706    25.798473 
   15600    285.24992   -10530.987            0   -9681.5614    5835.3936    783.06663    9.2172119    9.2172119    9.2172119    30.836796 
   15700     293.2226   -10543.594            0   -9670.4276    9370.9475     781.0137    9.2091501    9.2091501    9.2091501    29.140478 
   15800    286.72168   -10512.043            0   -9658.2344    -2788.781    779.44652    9.2029863    9.2029863    9.2029863      29.6654 
   15900    291.62239   -10515.975            0   -9647.5738    6920.5226    777.92274    9.1969852    9.1969852    9.1969852    27.136581 
   16000    305.68682    -10547.14            0   -9636.8568    6101.3584    776.94671    9.1931373    9.1931373    9.1931373    32.809471 
Loop time of 33.9066 on 4 procs for 1000 steps with 1000 atoms

Performance: 2.548 ns/day, 9.418 hours/ns, 29.493 timesteps/s
85.8% CPU use with 4 MPI tasks x no OpenMP threads

MPI task timing breakdown:
Section |  min time  |  avg time  |  max time  |%varavg| %total
---------------------------------------------------------------
Pair    | 9.2699     | 9.609      | 10.057     |   9.2 | 28.34
Neigh   | 3.618      | 3.6771     | 3.8049     |   3.9 | 10.84
Comm    | 1.2599     | 1.8364     | 2.2028     |  25.9 |  5.42
Output  | 12.62      | 14.147     | 18.723     |  70.2 | 41.72
Modify  | 0.044193   | 4.6203     | 6.1476     | 122.9 | 13.63
Other   |            | 0.01674    |            |       |  0.05

Nlocal:    250 ave 255 max 240 min
Histogram: 1 0 0 0 0 0 0 0 2 1
Nghost:    3001.5 ave 3023 max 2979 min
Histogram: 1 0 0 0 1 1 0 0 0 1
Neighs:    0 ave 0 max 0 min
Histogram: 4 0 0 0 0 0 0 0 0 0
FullNghs:  75926 ave 77385 max 72612 min
Histogram: 1 0 0 0 0 0 0 0 1 2

Total # of neighbors = 303704
Ave neighs/atom = 303.704
Neighbor list builds = 1000
Dangerous builds not checked
Setting up Verlet run ...
  Unit style    : real
  Current step  : 16000
  Time step     : 1
Per MPI rank memory allocation (min/avg/max) = 3.626 | 3.626 | 3.627 Mbytes
Step Temp E_pair E_mol TotEng Press Volume Lx Ly Lz S/CPU 
   16000    305.68682    -10547.14            0   -9636.8568    6101.3584    776.94671    9.1931373    9.1931373    9.1931373            0 
   16100    315.14712   -10567.264            0   -9628.8093    10403.505    776.83533    9.1926979    9.1926979    9.1926979    25.248503 
   16200    308.61756   -10542.314            0   -9623.3033   -1493.1176      777.547    9.1955043    9.1955043    9.1955043    22.933266 
   16300    292.21456   -10488.225            0   -9618.0602    13936.903    778.71289     9.200098     9.200098     9.200098    29.098314 
   16400    294.50476   -10491.711            0   -9614.7261   -3011.7046    780.41649    9.2068022    9.2068022    9.2068022    28.172679 
   16500     299.6124   -10504.583            0   -9612.3886    3440.0016    782.39899    9.2145916    9.2145916    9.2145916    29.871716 
   16600    300.34933    -10504.61            0   -9610.2212    1232.3249    784.25348    9.2218662    9.2218662    9.2218662    31.649744 
   16700    298.18611   -10496.413            0    -9608.466   -1394.0816    785.50153    9.2267555    9.2267555    9.2267555    26.394606 
   16800    297.66158   -10493.673            0   -9607.2874   -6461.4973    786.03615    9.2288483    9.2288483    9.2288483    24.461144 
   16900    311.19149     -10535.6            0   -9608.9247   -10081.468    785.91264    9.2283649    9.2283649    9.2283649    27.988279 
   17000    305.58629   -10519.842            0    -9609.858   -18775.396    785.19668    9.2255617    9.2255617    9.2255617     30.74465 
Loop time of 36.5168 on 4 procs for 1000 steps with 1000 atoms

Performance: 2.366 ns/day, 10.144 hours/ns, 27.385 timesteps/s
85.0% CPU use with 4 MPI tasks x no OpenMP threads

MPI task timing breakdown:
Section |  min time  |  avg time  |  max time  |%varavg| %total
---------------------------------------------------------------
Pair    | 9.4098     | 9.7952     | 10.178     |  11.1 | 26.82
Neigh   | 3.5598     | 3.7028     | 3.8144     |   4.8 | 10.14
Comm    | 1.3196     | 1.8138     | 2.2584     |  31.4 |  4.97
Output  | 14.481     | 16.146     | 21.138     |  71.7 | 44.22
Modify  | 0.049201   | 5.0419     | 6.7088     | 128.4 | 13.81
Other   |            | 0.01683    |            |       |  0.05

Nlocal:    250 ave 252 max 249 min
Histogram: 2 0 0 1 0 0 0 0 0 1
Nghost:    2978.25 ave 2987 max 2969 min
Histogram: 1 0 0 0 1 0 1 0 0 1
Neighs:    0 ave 0 max 0 min
Histogram: 4 0 0 0 0 0 0 0 0 0
FullNghs:  75165 ave 76210 max 74525 min
Histogram: 2 0 0 0 1 0 0 0 0 1

Total # of neighbors = 300660
Ave neighs/atom = 300.66
Neighbor list builds = 1000
Dangerous builds not checked
Setting up Verlet run ...
  Unit style    : real
  Current step  : 17000
  Time step     : 1
Per MPI rank memory allocation (min/avg/max) = 3.626 | 3.626 | 3.627 Mbytes
Step Temp E_pair E_mol TotEng Press Volume Lx Ly Lz S/CPU 
   17000    305.58629   -10519.842            0    -9609.858   -18775.396    785.19668    9.2255617    9.2255617    9.2255617            0 
   17100    298.51913   -10500.893            0   -9611.9543   -7596.8227    783.74589    9.2198762    9.2198762    9.2198762     28.96481 
   17200    313.46756   -10549.876            0   -9616.4235    315.33511    781.81291    9.2122902    9.2122902    9.2122902    31.328805 
   17300    291.95485   -10490.548            0   -9621.1568    4421.1825    779.81027    9.2044176    9.2044176    9.2044176    27.206313 
   17400    302.44477   -10530.151            0   -9629.5224   -626.02576    777.97489    9.1971907    9.1971907    9.1971907    31.757457 
   17500    303.56149   -10543.454            0      -9639.5    2819.0085    776.34717     9.190772     9.190772     9.190772    25.045827 
   17600    289.34485   -10513.028            0   -9651.4085    15445.872    774.96263    9.1853051    9.1853051    9.1853051    25.196859 
   17700    289.10917    -10525.36            0   -9664.4422      7357.45    773.98465    9.1814396    9.1814396    9.1814396    23.347184 
   17800    295.44671   -10555.978            0   -9676.1877      7281.63    773.41204    9.1791749    9.1791749    9.1791749    29.215417 
   17900    292.50282   -10556.551            0    -9685.528    11514.959    773.73954    9.1804703    9.1804703    9.1804703    27.633555 
   18000    300.02102   -10585.681            0   -9692.2693     873.8827    775.09271     9.185819     9.185819     9.185819    30.748738 
Loop time of 36.0073 on 4 procs for 1000 steps with 1000 atoms

Performance: 2.400 ns/day, 10.002 hours/ns, 27.772 timesteps/s
85.3% CPU use with 4 MPI tasks x no OpenMP threads

MPI task timing breakdown:
Section |  min time  |  avg time  |  max time  |%varavg| %total
---------------------------------------------------------------
Pair    | 9.4801     | 9.8391     | 10.463     |  12.7 | 27.33
Neigh   | 3.5433     | 3.6791     | 3.8455     |   5.7 | 10.22
Comm    | 1.0972     | 1.8874     | 2.3817     |  36.1 |  5.24
Output  | 14.312     | 15.871     | 20.541     |  67.7 | 44.08
Modify  | 0.042993   | 4.7141     | 6.2739     | 124.2 | 13.09
Other   |            | 0.01668    |            |       |  0.05

Nlocal:    250 ave 255 max 247 min
Histogram: 1 0 2 0 0 0 0 0 0 1
Nghost:    3019.75 ave 3041 max 2993 min
Histogram: 1 0 0 0 0 1 0 1 0 1
Neighs:    0 ave 0 max 0 min
Histogram: 4 0 0 0 0 0 0 0 0 0
FullNghs:  76150 ave 77435 max 75355 min
Histogram: 1 0 2 0 0 0 0 0 0 1

Total # of neighbors = 304600
Ave neighs/atom = 304.6
Neighbor list builds = 1000
Dangerous builds not checked
Setting up Verlet run ...
  Unit style    : real
  Current step  : 18000
  Time step     : 1
Per MPI rank memory allocation (min/avg/max) = 3.626 | 3.626 | 3.627 Mbytes
Step Temp E_pair E_mol TotEng Press Volume Lx Ly Lz S/CPU 
   18000    300.02102   -10585.681            0   -9692.2693     873.8827    775.09271     9.185819     9.185819     9.185819            0 
   18100    291.14173   -10562.784            0   -9695.8132   -1376.5092    777.17976    9.1940563    9.1940563    9.1940563     29.25534 
   18200    290.38908   -10560.983            0   -9696.2543   -6628.3362    779.51832    9.2032689    9.2032689    9.2032689    30.653056 
   18300     290.2588   -10557.871            0   -9693.5294   -14144.902    781.54427     9.211235     9.211235     9.211235    28.651614 
   18400    287.50603   -10544.614            0   -9688.4701    -11390.06    783.09135    9.2173089    9.2173089    9.2173089    29.981452 
   18500    281.73731    -10519.94            0   -9680.9747   -3655.0788    783.97145    9.2207607    9.2207607    9.2207607    28.672012 
   18600    292.20509   -10541.985            0   -9671.8478    -12919.97    784.23633     9.221799     9.221799     9.221799    34.192884 
   18700    291.42202    -10532.21            0   -9664.4055   -548.94085    784.17284    9.2215501    9.2215501    9.2215501    23.977227 
   18800    292.34144   -10528.136            0   -9657.5928    4750.0416    784.06048    9.2211097    9.2211097    9.2211097    32.595583 
   18900    307.44204   -10568.751            0    -9653.241    2869.0629    784.23898    9.2218094    9.2218094    9.2218094    27.212234 
   19000    299.75939   -10540.567            0   -9647.9343   -6285.5736    784.71847    9.2236885    9.2236885    9.2236885    26.884374 
Loop time of 34.5514 on 4 procs for 1000 steps with 1000 atoms

Performance: 2.501 ns/day, 9.598 hours/ns, 28.942 timesteps/s
85.6% CPU use with 4 MPI tasks x no OpenMP threads

MPI task timing breakdown:
Section |  min time  |  avg time  |  max time  |%varavg| %total
---------------------------------------------------------------
Pair    | 9.4301     | 9.6885     | 10.082     |   8.0 | 28.04
Neigh   | 3.5775     | 3.6706     | 3.7856     |   4.1 | 10.62
Comm    | 1.3595     | 1.8681     | 2.1171     |  22.4 |  5.41
Output  | 13.631     | 15.038     | 19.253     |  62.8 | 43.52
Modify  | 0.05334    | 4.2698     | 5.678      | 117.8 | 12.36
Other   |            | 0.0165     |            |       |  0.05

Nlocal:    250 ave 257 max 241 min
Histogram: 1 0 0 0 0 0 2 0 0 1
Nghost:    3002.75 ave 3013 max 2995 min
Histogram: 1 0 0 2 0 0 0 0 0 1
Neighs:    0 ave 0 max 0 min
Histogram: 4 0 0 0 0 0 0 0 0 0
FullNghs:  75168 ave 77009 max 72383 min
Histogram: 1 0 0 0 0 0 1 1 0 1

Total # of neighbors = 300672
Ave neighs/atom = 300.672
Neighbor list builds = 1000
Dangerous builds not checked
Setting up Verlet run ...
  Unit style    : real
  Current step  : 19000
  Time step     : 1
Per MPI rank memory allocation (min/avg/max) = 3.626 | 3.627 | 3.627 Mbytes
Step Temp E_pair E_mol TotEng Press Volume Lx Ly Lz S/CPU 
   19000    299.75939   -10540.567            0   -9647.9343   -6285.5736    784.71847    9.2236885    9.2236885    9.2236885            0 
   19100    305.75999   -10554.848            0   -9644.3471   -1945.9127    785.26575    9.2258322    9.2258322    9.2258322    27.697783 
   19200    290.64891   -10505.172            0   -9639.6692   -13273.508    785.68359    9.2274683    9.2274683    9.2274683    28.408267 
   19300    297.90849   -10523.221            0   -9636.1005    -4831.866    785.42202    9.2264442    9.2264442    9.2264442    31.739967 
   19400    295.97385   -10512.659            0   -9631.2997   -9185.7136    784.73762    9.2237635    9.2237635    9.2237635    22.855227 
   19500    303.76602   -10530.888            0   -9626.3246    495.13874    783.64257    9.2194711    9.2194711    9.2194711    30.755918 
   19600    301.13764   -10518.769            0   -9622.0327    13298.191    782.77994    9.2160869    9.2160869    9.2160869     26.67856 
   19700    295.05553   -10496.588            0   -9617.9626    6486.3059    782.43771    9.2147436    9.2147436    9.2147436    30.774194 
   19800    294.04488   -10488.857            0   -9613.2411    19282.925    782.41621    9.2146592    9.2146592    9.2146592    30.204383 
   19900    297.49599   -10495.193            0   -9609.3008    4580.0393    782.78244    9.2160967    9.2160967    9.2160967    30.305402 
   20000    294.01711   -10480.428            0   -9604.8954   -2243.3323    783.40922    9.2185559    9.2185559    9.2185559    25.084762 
Loop time of 35.5027 on 4 procs for 1000 steps with 1000 atoms

Performance: 2.434 ns/day, 9.862 hours/ns, 28.167 timesteps/s
85.4% CPU use with 4 MPI tasks x no OpenMP threads

MPI task timing breakdown:
Section |  min time  |  avg time  |  max time  |%varavg| %total
---------------------------------------------------------------
Pair    | 9.4596     | 9.7385     | 9.9907     |   6.2 | 27.43
Neigh   | 3.5495     | 3.7079     | 3.803      |   4.9 | 10.44
Comm    | 1.5336     | 1.8805     | 2.3174     |  20.8 |  5.30
Output  | 13.921     | 15.471     | 20.117     |  68.2 | 43.58
Modify  | 0.041063   | 4.6881     | 6.2399     | 123.9 | 13.20
Other   |            | 0.01664    |            |       |  0.05

Nlocal:    250 ave 258 max 247 min
Histogram: 3 0 0 0 0 0 0 0 0 1
Nghost:    3002.25 ave 3018 max 2987 min
Histogram: 2 0 0 0 0 0 0 0 1 1
Neighs:    0 ave 0 max 0 min
Histogram: 4 0 0 0 0 0 0 0 0 0
FullNghs:  75386.5 ave 77894 max 74368 min
Histogram: 3 0 0 0 0 0 0 0 0 1

Total # of neighbors = 301546
Ave neighs/atom = 301.546
Neighbor list builds = 1000
Dangerous builds not checked
Setting up Verlet run ...
  Unit style    : real
  Current step  : 20000
  Time step     : 1
Per MPI rank memory allocation (min/avg/max) = 3.626 | 3.627 | 3.627 Mbytes
Step Temp E_pair E_mol TotEng Press Volume Lx Ly Lz S/CPU 
   20000    294.01711   -10480.428            0   -9604.8954   -2243.3323    783.40922    9.2185559    9.2185559    9.2185559            0 
   20100    299.91971   -10493.315            0   -9600.2052    131.58693    784.14961    9.2214591    9.2214591    9.2214591    30.495237 
   20200    315.54043   -10535.337            0   -9595.7115   -10092.471    784.80103    9.2240119    9.2240119    9.2240119    31.572622 
   20300    306.95716   -10503.658            0   -9589.5915   -11118.901    784.88013    9.2243218    9.2243218    9.2243218    27.199335 
   20400    296.36651   -10464.183            0   -9581.6537    6603.0523    784.60993    9.2232632    9.2232632    9.2232632    30.581201 
   20500    304.12848   -10477.551            0   -9571.9078   -9574.6177    784.22908    9.2217706    9.2217706    9.2217706     28.54368 
   20600    302.17306   -10460.031            0   -9560.2113    11568.823    783.88718    9.2204303    9.2204303    9.2204303    26.948226 
   20700    314.44104   -10487.032            0   -9550.6806    13712.131    783.96871    9.2207499    9.2207499    9.2207499    31.406199 
   20800    311.72877   -10469.212            0   -9540.9368    5297.3764    784.89722    9.2243887    9.2243887    9.2243887    28.132896 
   20900    293.89178   -10403.084            0   -9527.9246   -3246.4269    786.22604    9.2295914    9.2295914    9.2295914    25.600658 
   21000    315.01819   -10461.266            0   -9523.1957   -2961.5795     787.6272    9.2350709    9.2350709    9.2350709    34.615848 
Loop time of 34.1409 on 4 procs for 1000 steps with 1000 atoms

Performance: 2.531 ns/day, 9.484 hours/ns, 29.290 timesteps/s
85.7% CPU use with 4 MPI tasks x no OpenMP threads

MPI task timing breakdown:
Section |  min time  |  avg time  |  max time  |%varavg| %total
---------------------------------------------------------------
Pair    | 9.3769     | 9.5953     | 10.174     |  10.8 | 28.10
Neigh   | 3.5527     | 3.6444     | 3.8082     |   5.1 | 10.67
Comm    | 1.2318     | 1.9768     | 2.2821     |  30.8 |  5.79
Output  | 12.578     | 14.147     | 18.848     |  72.2 | 41.44
Modify  | 0.061614   | 4.7613     | 6.3307     | 124.4 | 13.95
Other   |            | 0.01645    |            |       |  0.05

Nlocal:    250 ave 259 max 245 min
Histogram: 1 1 1 0 0 0 0 0 0 1
Nghost:    2992.5 ave 3016 max 2965 min
Histogram: 1 0 0 0 0 1 1 0 0 1
Neighs:    0 ave 0 max 0 min
Histogram: 4 0 0 0 0 0 0 0 0 0
FullNghs:  74920.5 ave 78120 max 72802 min
Histogram: 1 1 0 0 1 0 0 0 0 1

Total # of neighbors = 299682
Ave neighs/atom = 299.682
Neighbor list builds = 1000
Dangerous builds not checked
Setting up Verlet run ...
  Unit style    : real
  Current step  : 21000
  Time step     : 1
Per MPI rank memory allocation (min/avg/max) = 3.626 | 3.627 | 3.627 Mbytes
Step Temp E_pair E_mol TotEng Press Volume Lx Ly Lz S/CPU 
   21000    315.01819   -10461.266            0   -9523.1957   -2961.5795     787.6272    9.2350709    9.2350709    9.2350709            0 
   21100    308.68549   -10436.527            0   -9517.3146   -2638.0562    788.86992    9.2399254    9.2399254    9.2399254    30.159377 
   21200     303.3454   -10416.433            0   -9513.1218   -6236.0903    789.99857    9.2443299    9.2443299    9.2443299    32.665014 
   21300    302.41803    -10411.54            0   -9510.9908   -11295.709    790.98105    9.2481605    9.2481605    9.2481605    30.160145 
   21400    313.61325   -10443.208            0   -9509.3208   -9724.2174    791.04659    9.2484159    9.2484159    9.2484159    28.596577 
   21500    307.06064   -10424.483            0   -9510.1089    1507.1816     790.1241    9.2448195    9.2448195    9.2448195    31.462634 
   21600    306.04115   -10423.622            0    -9512.284    1036.1388    788.75393    9.2394725    9.2394725    9.2394725    26.299637 
   21700    307.08525   -10435.069            0   -9520.6216     2082.221    787.34312    9.2339605    9.2339605    9.2339605    29.969282 
   21800    300.18128   -10428.828            0   -9534.9391   -1151.8973    786.08223    9.2290286    9.2290286    9.2290286    29.083947 
   21900    306.25651   -10467.403            0   -9555.4237    4013.8929    785.08918    9.2251407    9.2251407    9.2251407    32.282895 
   22000    300.42579   -10469.833            0   -9575.2159    1520.0894    784.29339    9.2220227    9.2220227    9.2220227    28.375078 
Loop time of 33.5674 on 4 procs for 1000 steps with 1000 atoms

Performance: 2.574 ns/day, 9.324 hours/ns, 29.791 timesteps/s
85.8% CPU use with 4 MPI tasks x no OpenMP threads

MPI task timing breakdown:
Section |  min time  |  avg time  |  max time  |%varavg| %total
---------------------------------------------------------------
Pair    | 9.3759     | 9.5605     | 9.985      |   8.1 | 28.48
Neigh   | 3.5728     | 3.6628     | 3.7765     |   3.9 | 10.91
Comm    | 1.279      | 1.8167     | 2.0902     |  23.5 |  5.41
Output  | 12.236     | 13.795     | 18.466     |  72.6 | 41.10
Modify  | 0.043246   | 4.7157     | 6.2763     | 124.2 | 14.05
Other   |            | 0.01667    |            |       |  0.05

Nlocal:    250 ave 254 max 247 min
Histogram: 1 0 1 0 1 0 0 0 0 1
Nghost:    2996 ave 3007 max 2980 min
Histogram: 1 0 0 0 0 1 0 0 1 1
Neighs:    0 ave 0 max 0 min
Histogram: 4 0 0 0 0 0 0 0 0 0
FullNghs:  75234.5 ave 76572 max 74647 min
Histogram: 2 1 0 0 0 0 0 0 0 1

Total # of neighbors = 300938
Ave neighs/atom = 300.938
Neighbor list builds = 1000
Dangerous builds not checked
Setting up Verlet run ...
  Unit style    : real
  Current step  : 22000
  Time step     : 1
Per MPI rank memory allocation (min/avg/max) = 3.626 | 3.627 | 3.627 Mbytes
Step Temp E_pair E_mol TotEng Press Volume Lx Ly Lz S/CPU 
   22000    300.42579   -10469.833            0   -9575.2159    1520.0894    784.29339    9.2220227    9.2220227    9.2220227            0 
   22100    296.63557   -10473.362            0    -9590.032   -4140.0995    783.34976    9.2183227    9.2183227    9.2183227    25.448877 
   22200    306.71186   -10516.092            0   -9602.7561    3986.2919    782.24776    9.2139979    9.2139979    9.2139979    28.527378 
   22300    296.61894    -10493.67            0   -9610.3894   -358.65219    781.16385    9.2097402    9.2097402    9.2097402    26.032267 
   22400    289.96336   -10481.023            0   -9617.5617    4228.6543    780.08998     9.205518     9.205518     9.205518    27.550398 
   22500    290.84141   -10489.008            0    -9622.932    6720.0852     779.1156    9.2016837    9.2016837    9.2016837    28.107434 
   22600    296.70257   -10512.698            0   -9629.1685    11838.379    778.70639    9.2000724    9.2000724    9.2000724    24.866791 
   22700    300.02044    -10526.34            0   -9632.9305    -12986.33    778.58637    9.1995997    9.1995997    9.1995997    28.855655 
   22800    295.35514   -10516.454            0   -9636.9368   -7631.4001    778.31906    9.1985468    9.1985468    9.1985468       26.118 
   22900    306.10784   -10552.955            0   -9641.4184    19396.802    778.23452    9.1982137    9.1982137    9.1982137    30.317379 
   23000    295.42398   -10524.445            0   -9644.7229   -7233.2087    778.75103    9.2002482    9.2002482    9.2002482    31.288992 
Loop time of 36.274 on 4 procs for 1000 steps with 1000 atoms

Performance: 2.382 ns/day, 10.076 hours/ns, 27.568 timesteps/s
85.1% CPU use with 4 MPI tasks x no OpenMP threads

MPI task timing breakdown:
Section |  min time  |  avg time  |  max time  |%varavg| %total
---------------------------------------------------------------
Pair    | 9.4588     | 9.7133     | 10.142     |   8.4 | 26.78
Neigh   | 3.5902     | 3.6555     | 3.7596     |   3.3 | 10.08
Comm    | 1.3448     | 1.8773     | 2.1578     |  23.5 |  5.18
Output  | 14.996     | 16.491     | 20.967     |  63.6 | 45.46
Modify  | 0.043934   | 4.5203     | 6.0156     | 121.6 | 12.46
Other   |            | 0.01656    |            |       |  0.05

Nlocal:    250 ave 255 max 247 min
Histogram: 1 0 2 0 0 0 0 0 0 1
Nghost:    3025.5 ave 3033 max 3021 min
Histogram: 2 0 0 0 1 0 0 0 0 1
Neighs:    0 ave 0 max 0 min
Histogram: 4 0 0 0 0 0 0 0 0 0
FullNghs:  75796.5 ave 77307 max 74765 min
Histogram: 1 0 1 1 0 0 0 0 0 1

Total # of neighbors = 303186
Ave neighs/atom = 303.186
Neighbor list builds = 1000
Dangerous builds not checked
Setting up Verlet run ...
  Unit style    : real
  Current step  : 23000
  Time step     : 1
Per MPI rank memory allocation (min/avg/max) = 3.626 | 3.627 | 3.627 Mbytes
Step Temp E_pair E_mol TotEng Press Volume Lx Ly Lz S/CPU 
   23000    295.42398   -10524.445            0   -9644.7229   -7233.2087    778.75103    9.2002482    9.2002482    9.2002482            0 
   23100    297.01568   -10531.879            0   -9647.4172    1453.2801    779.05068    9.2014281    9.2014281    9.2014281    23.966051 
   23200    303.02916   -10551.906            0   -9649.5367   -1204.0678    779.49771    9.2031877    9.2031877    9.2031877    22.787028 
   23300    300.22182   -10546.128            0   -9652.1187   -8522.4917     780.0676      9.20543      9.20543      9.20543    30.001953 
   23400    294.14332   -10530.197            0   -9654.2885   -7169.6471    780.35334    9.2065539    9.2065539    9.2065539    19.282213 
   23500     290.4707   -10521.151            0   -9656.1783    4479.8051    780.38852    9.2066922    9.2066922    9.2066922    31.161305 
   23600     295.9521   -10538.202            0   -9656.9071    10856.131    780.51184    9.2071771    9.2071771    9.2071771    30.871879 
   23700    289.50995   -10517.036            0    -9654.925    15431.645    780.86745    9.2085752    9.2085752    9.2085752     33.81768 
   23800    284.33936   -10496.651            0   -9649.9373    25389.027    781.92523    9.2127314    9.2127314    9.2127314    31.539577 
   23900    285.86698   -10493.872            0   -9642.6093    11913.818    783.89543    9.2204626    9.2204626    9.2204626    24.322348 
   24000    296.29926   -10513.866            0   -9631.5375    4382.0246     786.4272    9.2303785    9.2303785    9.2303785    25.962943 
Loop time of 37.6193 on 4 procs for 1000 steps with 1000 atoms

Performance: 2.297 ns/day, 10.450 hours/ns, 26.582 timesteps/s
84.8% CPU use with 4 MPI tasks x no OpenMP threads

MPI task timing breakdown:
Section |  min time  |  avg time  |  max time  |%varavg| %total
---------------------------------------------------------------
Pair    | 9.3096     | 9.6527     | 10.186     |  10.9 | 25.66
Neigh   | 3.5386     | 3.6467     | 3.8082     |   5.2 |  9.69
Comm    | 1.3024     | 1.997      | 2.3532     |  30.2 |  5.31
Output  | 15.588     | 17.259     | 22.265     |  69.6 | 45.88
Modify  | 0.040826   | 5.0478     | 6.7195     | 128.7 | 13.42
Other   |            | 0.01647    |            |       |  0.04

Nlocal:    250 ave 256 max 245 min
Histogram: 1 1 0 0 0 0 1 0 0 1
Nghost:    2988 ave 2997 max 2979 min
Histogram: 1 0 1 0 0 0 0 1 0 1
Neighs:    0 ave 0 max 0 min
Histogram: 4 0 0 0 0 0 0 0 0 0
FullNghs:  75101.5 ave 76389 max 73703 min
Histogram: 1 1 0 0 0 0 0 0 1 1

Total # of neighbors = 300406
Ave neighs/atom = 300.406
Neighbor list builds = 1000
Dangerous builds not checked
Setting up Verlet run ...
  Unit style    : real
  Current step  : 24000
  Time step     : 1
Per MPI rank memory allocation (min/avg/max) = 3.626 | 3.627 | 3.627 Mbytes
Step Temp E_pair E_mol TotEng Press Volume Lx Ly Lz S/CPU 
   24000    296.29926   -10513.866            0   -9631.5375    4382.0246     786.4272    9.2303785    9.2303785    9.2303785            0 
   24100    294.63879   -10497.475            0   -9620.0911    1386.2281     789.1647    9.2410762    9.2410762    9.2410762    27.970728 
   24200    300.50602   -10501.793            0   -9606.9369   -23646.987    791.69505    9.2509424    9.2509424    9.2509424    32.401581 
   24300    311.07265   -10522.674            0   -9596.3524   -15242.797    793.24185    9.2569632    9.2569632    9.2569632    26.892598 
   24400    302.22925   -10486.447            0   -9586.4601   -5903.8069    794.00839    9.2599441    9.2599441    9.2599441    29.637412 
   24500    302.48315   -10479.915            0   -9579.1722    -20868.94    793.82473      9.25923      9.25923      9.25923    30.548751 
   24600    306.37589   -10487.029            0   -9574.6941   -14619.915    792.36612    9.2535555    9.2535555    9.2535555    30.558377 
   24700    297.18346   -10455.825            0   -9570.8631   -5269.9576    789.83705    9.2436998    9.2436998    9.2436998    24.017104 
   24800    309.55531   -10491.455            0   -9569.6518   -17100.608    786.62701    9.2311601    9.2311601    9.2311601    30.547455 
   24900    297.90366   -10454.136            0   -9567.0296    2547.3736     782.8899    9.2165185    9.2165185    9.2165185    28.176109 
   25000    303.85605    -10471.54            0   -9566.7087   -2948.6863    779.62539    9.2036902    9.2036902    9.2036902    28.250339 
Loop time of 34.8262 on 4 procs for 1000 steps with 1000 atoms

Performance: 2.481 ns/day, 9.674 hours/ns, 28.714 timesteps/s
85.4% CPU use with 4 MPI tasks x no OpenMP threads

MPI task timing breakdown:
Section |  min time  |  avg time  |  max time  |%varavg| %total
---------------------------------------------------------------
Pair    | 9.212      | 9.5197     | 10.068     |  11.1 | 27.33
Neigh   | 3.5285     | 3.6614     | 3.8221     |   5.5 | 10.51
Comm    | 1.2063     | 1.9157     | 2.3561     |  31.6 |  5.50
Output  | 13.722     | 15.209     | 19.665     |  66.0 | 43.67
Modify  | 0.04704    | 4.5039     | 5.9922     | 121.2 | 12.93
Other   |            | 0.01663    |            |       |  0.05

Nlocal:    250 ave 259 max 241 min
Histogram: 1 0 0 1 0 0 1 0 0 1
Nghost:    2988 ave 2995 max 2980 min
Histogram: 1 0 0 0 1 0 0 1 0 1
Neighs:    0 ave 0 max 0 min
Histogram: 4 0 0 0 0 0 0 0 0 0
FullNghs:  75636.5 ave 78476 max 72357 min
Histogram: 1 0 0 0 1 0 1 0 0 1

Total # of neighbors = 302546
Ave neighs/atom = 302.546
Neighbor list builds = 1000
Dangerous builds not checked
Setting up Verlet run ...
  Unit style    : real
  Current step  : 25000
  Time step     : 1
Per MPI rank memory allocation (min/avg/max) = 3.626 | 3.627 | 3.627 Mbytes
Step Temp E_pair E_mol TotEng Press Volume Lx Ly Lz S/CPU 
   25000    303.85605    -10471.54            0   -9566.7087   -2948.6863    779.62539    9.2036902    9.2036902    9.2036902            0 
   25100    309.82244   -10491.541            0   -9568.9429    11758.837     776.7413     9.192327     9.192327     9.192327    28.899241 
   25200    307.78567   -10487.041            0   -9570.5078    21456.004    774.87729    9.1849679    9.1849679    9.1849679    29.544313 
   25300    306.93315    -10490.15            0   -9576.1556    17242.578    774.50683    9.1835039    9.1835039    9.1835039    31.215298 
   25400    308.53813   -10502.041            0   -9583.2672    23227.154    775.37997    9.1869537    9.1869537    9.1869537    28.317083 
   25500    309.08763   -10510.771            0   -9590.3606    24256.391    777.14589    9.1939228    9.1939228    9.1939228    27.766076 
   25600    295.99825   -10478.596            0    -9597.164    3158.3257    779.87084     9.204656     9.204656     9.204656    23.249278 
   25700    305.50595   -10515.222            0   -9605.4771    4563.3319    783.21193     9.217782     9.217782     9.217782    27.311061 
   25800    295.79782   -10491.796            0   -9610.9608   -641.87647    786.66873    9.2313233    9.2313233    9.2313233    28.252781 
   25900    286.98367   -10470.144            0   -9615.5554   -10639.188    789.95224    9.2441492    9.2441492    9.2441492    28.308239 
   26000    289.47243   -10482.336            0   -9620.3367   -17855.247    792.42456     9.253783     9.253783     9.253783    31.662816 
Loop time of 35.3746 on 4 procs for 1000 steps with 1000 atoms

Performance: 2.442 ns/day, 9.826 hours/ns, 28.269 timesteps/s
85.5% CPU use with 4 MPI tasks x no OpenMP threads

MPI task timing breakdown:
Section |  min time  |  avg time  |  max time  |%varavg| %total
---------------------------------------------------------------
Pair    | 9.495      | 9.8182     | 10.314     |   9.7 | 27.75
Neigh   | 3.5695     | 3.6825     | 3.8219     |   5.2 | 10.41
Comm    | 1.2565     | 1.8928     | 2.3292     |  28.8 |  5.35
Output  | 13.599     | 15.18      | 19.917     |  70.2 | 42.91
Modify  | 0.047456   | 4.7848     | 6.3662     | 125.0 | 13.53
Other   |            | 0.01662    |            |       |  0.05

Nlocal:    250 ave 255 max 241 min
Histogram: 1 0 0 0 0 1 0 0 0 2
Nghost:    2972.75 ave 2987 max 2957 min
Histogram: 1 0 0 0 0 2 0 0 0 1
Neighs:    0 ave 0 max 0 min
Histogram: 4 0 0 0 0 0 0 0 0 0
FullNghs:  74443 ave 76502 max 71528 min
Histogram: 1 0 0 0 0 1 0 0 1 1

Total # of neighbors = 297772
Ave neighs/atom = 297.772
Neighbor list builds = 1000
Dangerous builds not checked
Setting up Verlet run ...
  Unit style    : real
  Current step  : 26000
  Time step     : 1
Per MPI rank memory allocation (min/avg/max) = 3.626 | 3.627 | 3.627 Mbytes
Step Temp E_pair E_mol TotEng Press Volume Lx Ly Lz S/CPU 
   26000    289.47243   -10482.336            0   -9620.3367   -17855.247    792.42456     9.253783     9.253783     9.253783            0 
   26100    290.07502   -10487.433            0   -9623.6388   -13346.475    793.63737    9.2585015    9.2585015    9.2585015    29.749575 
   26200    285.49248   -10474.804            0   -9624.6561   -23271.568    793.87045    9.2594078    9.2594078    9.2594078    30.974216 
   26300    283.56147   -10470.473            0    -9626.075   -12682.855    793.05599    9.2562402    9.2562402    9.2562402    29.813963 
   26400    286.77149    -10481.31            0   -9627.3533   -17876.269    791.74902    9.2511526    9.2511526    9.2511526    27.357008 
   26500     289.0352   -10487.664            0   -9626.9664   -16619.493    789.58908    9.2427323    9.2427323    9.2427323    30.723911 
   26600    297.24472   -10510.674            0   -9625.5297   -8230.5826    786.67349     9.231342     9.231342     9.231342    28.277759 
   26700    296.89581   -10505.138            0   -9621.0333   -2733.7396    783.61305    9.2193553    9.2193553    9.2193553    30.719033 
   26800    307.99296   -10532.763            0   -9615.6125    12151.229    780.90329    9.2087161    9.2087161    9.2087161    30.960457 
   26900    305.58586   -10519.157            0   -9609.1749    10820.169    778.77117    9.2003275    9.2003275    9.2003275     33.39317 
   27000    296.42531   -10484.469            0   -9601.7653     9070.949    777.03799    9.1934972    9.1934972    9.1934972    28.532772 
Loop time of 33.3752 on 4 procs for 1000 steps with 1000 atoms

Performance: 2.589 ns/day, 9.271 hours/ns, 29.962 timesteps/s
85.9% CPU use with 4 MPI tasks x no OpenMP threads

MPI task timing breakdown:
Section |  min time  |  avg time  |  max time  |%varavg| %total
---------------------------------------------------------------
Pair    | 9.2204     | 9.6275     | 10.083     |  10.9 | 28.85
Neigh   | 3.5522     | 3.6742     | 3.7986     |   4.6 | 11.01
Comm    | 1.2255     | 1.8045     | 2.2217     |  30.4 |  5.41
Output  | 12.357     | 13.821     | 18.207     |  68.1 | 41.41
Modify  | 0.043454   | 4.4313     | 5.8971     | 120.3 | 13.28
Other   |            | 0.01672    |            |       |  0.05

Nlocal:    250 ave 253 max 248 min
Histogram: 1 0 1 0 1 0 0 0 0 1
Nghost:    3007 ave 3017 max 2986 min
Histogram: 1 0 0 0 0 0 0 0 1 2
Neighs:    0 ave 0 max 0 min
Histogram: 4 0 0 0 0 0 0 0 0 0
FullNghs:  75936.5 ave 76999 max 75061 min
Histogram: 1 0 0 1 1 0 0 0 0 1

Total # of neighbors = 303746
Ave neighs/atom = 303.746
Neighbor list builds = 1000
Dangerous builds not checked
Setting up Verlet run ...
  Unit style    : real
  Current step  : 27000
  Time step     : 1
Per MPI rank memory allocation (min/avg/max) = 3.626 | 3.627 | 3.627 Mbytes
Step Temp E_pair E_mol TotEng Press Volume Lx Ly Lz S/CPU 
   27000    296.42531   -10484.469            0   -9601.7653     9070.949    777.03799    9.1934972    9.1934972    9.1934972            0 
   27100    305.41609   -10503.137            0   -9593.6595    15931.377    775.66941    9.1880966    9.1880966    9.1880966    32.053586 
   27200    304.58322   -10493.382            0   -9586.3851    21659.471    775.28529    9.1865797    9.1865797    9.1865797    25.942495 
   27300      306.242    -10492.45            0   -9580.5133    14182.496     776.2854    9.1905282    9.1905282    9.1905282    28.613344 
   27400     308.4907   -10494.255            0   -9575.6223    7676.9273     777.9716    9.1971778    9.1971778    9.1971778    31.756522 
   27500     303.2188   -10474.141            0   -9571.2075    2671.9461    780.04507    9.2053414    9.2053414    9.2053414    31.699236 
   27600    310.37082   -10492.321            0   -9568.0899    -5603.703     782.4599    9.2148308    9.2148308    9.2148308    33.798134 
   27700     306.2023   -10477.313            0   -9565.4948    10586.694    785.09067    9.2251465    9.2251465    9.2251465    28.614126 
   27800     305.6929    -10473.47            0   -9563.1691   -3421.6074    787.84785    9.2359332    9.2359332    9.2359332    32.822619 
   27900    303.81464   -10467.383            0   -9562.6753   -6778.8179    790.38788    9.2458482    9.2458482    9.2458482    27.655172 
   28000    300.34173   -10454.417            0   -9560.0505   -31460.997    792.04052    9.2522878    9.2522878    9.2522878    30.995071 
Loop time of 33.1154 on 4 procs for 1000 steps with 1000 atoms

Performance: 2.609 ns/day, 9.199 hours/ns, 30.197 timesteps/s
86.2% CPU use with 4 MPI tasks x no OpenMP threads

MPI task timing breakdown:
[...]
 1456700    299.37864   -11519.756            0   -10628.257      12519.2    734.27241    9.0216451    9.0216451    9.0216451    37.090681 
 1456800    305.93834   -11537.689            0   -10626.657   -247.14084    734.46004    9.0224134    9.0224134    9.0224134    26.905748 
 1456900    298.59477   -11512.531            0   -10623.367    10536.656    735.02208    9.0247143    9.0247143    9.0247143    33.973908 
 1457000    276.19572    -11440.66            0   -10618.196   -654.14924     735.9251    9.0284086    9.0284086    9.0284086    30.790302 
 1457100    292.09373   -11485.516            0    -10615.71   -6439.7381     736.7395    9.0317377    9.0317377    9.0317377    36.500892 
 1457200     296.3242   -11493.629            0   -10611.226   -9116.4432    737.12083    9.0332957    9.0332957    9.0332957     29.18779 
 1457300    295.74219   -11488.423            0   -10607.753   -5248.1966    737.13855    9.0333681    9.0333681    9.0333681    36.128706 
 1457400    294.69527   -11479.621            0   -10602.069   -1814.7318    736.96162    9.0326453    9.0326453    9.0326453     31.32796 
 1457500     294.4739   -11472.889            0   -10595.996   -5476.1543    736.60986     9.031208     9.031208     9.031208     34.12493 
 1457600    305.98389   -11502.055            0   -10590.887    3535.9028    735.92473    9.0284071    9.0284071    9.0284071    30.828207 
 1457700    294.94974   -11461.864            0   -10583.554    8767.8548    735.37272    9.0261491    9.0261491    9.0261491    36.022745 
 1457800    305.20873   -11486.734            0   -10577.874    9070.7423    735.36119     9.026102     9.026102     9.026102    35.097934 
 1457900    303.37595   -11475.053            0   -10571.651    6966.1053    735.80556    9.0279197    9.0279197    9.0279197    30.813239 
 1458000    301.65822   -11462.765            0   -10564.478    8613.5157    736.58291    9.0310978    9.0310978    9.0310978    32.139987 
 1458100     301.4168   -11456.331            0   -10558.763    4055.6827    737.45459    9.0346589    9.0346589    9.0346589    32.804439 
 1458200    299.57849   -11445.131            0   -10553.038   -5362.6841    738.18159    9.0376268    9.0376268    9.0376268    33.509463 
 1458300    306.72396   -11462.536            0   -10549.164   -6500.6379    738.52597     9.039032     9.039032     9.039032    35.821167 
 1458400    297.21175   -11429.069            0   -10544.023    -3829.349    738.54721    9.0391186    9.0391186    9.0391186    30.669853 
 1458500    314.69598   -11477.759            0   -10540.648   -1939.6744    738.43811    9.0386735    9.0386735    9.0386735    31.740451 
 1458600    311.45753   -11465.186            0   -10537.718   -3861.9626    738.10407    9.0373104    9.0373104    9.0373104     35.76499 
 1458700    307.39931   -11451.052            0    -10535.67   -3113.9192    737.56837    9.0351235    9.0351235    9.0351235    32.991563 
 1458800    306.73108   -11448.475            0   -10535.082   -5441.1288    736.93468    9.0325352    9.0325352    9.0325352    29.683843 
 1458900    309.36544   -11457.828            0    -10536.59    378.81558     736.3152    9.0300036    9.0300036    9.0300036    32.079737 
 1459000    305.77271   -11452.931            0   -10542.392    4931.9448    735.74964     9.027691     9.027691     9.027691    32.270061 
 1459100    294.56772   -11428.841            0   -10551.669    4470.7044    735.50508    9.0266906    9.0266906    9.0266906    28.655854 
 1459200    297.96249   -11453.741            0   -10566.459    7079.7481    735.68723    9.0274358    9.0274358    9.0274358    33.191459 
 1459300    297.87281    -11469.42            0   -10582.406    2781.3716    736.36604    9.0302114    9.0302114    9.0302114    32.174156 
 1459400    303.78666    -11500.64            0   -10596.015    1350.4439    737.25049    9.0338253    9.0338253    9.0338253    34.317676 
 1459500    302.64248   -11509.378            0   -10608.161   -7379.5145     738.1345    9.0374346    9.0374346    9.0374346    35.064571 
 1459600    292.00311    -11484.69            0   -10615.155   -19344.877    738.59508    9.0393139    9.0393139    9.0393139    35.423227 
 1459700    290.72442   -11487.415            0   -10621.688   -9579.9483    738.06944    9.0371691    9.0371691    9.0371691    33.217635 
 1459800    292.91144   -11499.092            0   -10626.852   -4475.6678    736.70489    9.0315963    9.0315963    9.0315963    30.741157 
 1459900    291.87906   -11498.628            0   -10629.462    5768.1508    734.95781    9.0244513    9.0244513    9.0244513    34.143116 
 1460000    298.64591   -11520.676            0    -10631.36    5893.4632    733.29845    9.0176544    9.0176544    9.0176544    28.702297 
 1460100    294.46395   -11508.495            0   -10631.632    12891.949    731.98732    9.0122767    9.0122767    9.0122767    31.500087 
 1460200    295.31289   -11509.944            0   -10630.553    14335.182    731.47839    9.0101876    9.0101876    9.0101876    28.215449 
 1460300    297.66678   -11514.642            0   -10628.241    19466.618    732.04654    9.0125198    9.0125198    9.0125198    35.863916 
 1460400    299.35896   -11517.055            0   -10625.615    7374.8698    733.80766    9.0197413    9.0197413    9.0197413    31.811779 
 1460500    292.02945   -11491.246            0   -10621.633   -3116.1937    736.40118     9.030355     9.030355     9.030355    33.716873 
 1460600    291.69807   -11482.753            0   -10614.126   -9051.0251    739.18474    9.0417188    9.0417188    9.0417188    33.423873 
 1460700    298.55681   -11493.632            0   -10604.581   -21629.184    741.16035    9.0497669    9.0497669    9.0497669    34.518476 
 1460800     310.9314       -11520            0   -10594.099   -23165.557    741.65563    9.0517823    9.0517823    9.0517823    33.116545 
 1460900    300.50346   -11476.929            0   -10582.081   -10644.408    740.69506    9.0478727    9.0478727    9.0478727    35.996883 
 1461000    296.70114   -11455.401            0   -10571.876   -10443.171     738.4787    9.0388391    9.0388391    9.0388391    35.024328 
 1461100    309.96295   -11487.573            0   -10564.556    7640.2941    735.41889     9.026338     9.026338     9.026338    33.614646 
 1461200      309.575    -11479.76            0   -10557.899    14560.662    732.43019    9.0140939    9.0140939    9.0140939    33.494366 
 1461300    307.86559   -11469.919            0   -10553.147    27517.495    730.47477    9.0060649    9.0060649    9.0060649     31.47694 
 1461400    309.42897   -11474.135            0   -10552.708    32743.256    730.15919    9.0047678    9.0047678    9.0047678    35.173078 
 1461500    307.86676   -11471.025            0    -10554.25    22330.983    731.69863    9.0110918    9.0110918    9.0110918    32.413644 
 1461600    311.93084   -11486.607            0    -10557.73    10450.508    734.76186    9.0236492    9.0236492    9.0236492    36.420666 
 1461700    302.73909   -11460.418            0   -10558.913   -11729.621     738.6339    9.0394723    9.0394723    9.0394723    33.165154 
 1461800    290.74707   -11425.911            0   -10560.116    -29668.77    741.92248    9.0528678    9.0528678    9.0528678    33.218007 
 1461900    299.67531   -11455.405            0   -10563.023   -26479.833    743.59078    9.0596482    9.0596482    9.0596482    31.497421 
 1462000    300.09827   -11458.951            0    -10565.31   -40123.381    743.24685    9.0582512    9.0582512    9.0582512    34.012661 
 1462100    295.92921   -11448.513            0   -10567.286    -24164.98    740.73141    9.0480207    9.0480207    9.0480207    34.322095 
 1462200     300.1585   -11463.991            0    -10570.17   -6596.0493    736.85071    9.0321922    9.0321922    9.0321922    34.957756 
 1462300    296.24148   -11452.513            0   -10570.356    17677.495    732.89199     9.015988     9.015988     9.015988    34.404659 
 1462400    296.63886   -11453.952            0   -10570.612    36283.324    729.99354    9.0040868    9.0040868    9.0040868    31.154139 
 1462500    296.55079   -11456.002            0   -10572.924    27824.665    728.91422     8.999647     8.999647     8.999647    33.526082 
 1462600    316.90427   -11519.229            0   -10575.542    26713.786    729.86816    9.0035712    9.0035712    9.0035712    34.470286 
 1462700    300.44047   -11472.443            0   -10577.783    31977.986    732.69879    9.0151957    9.0151957    9.0151957    30.773818 
 1462800    308.25022   -11499.731            0   -10581.814   -2507.5815    736.90363    9.0324084    9.0324084    9.0324084    36.214714 
 1462900    305.11176   -11491.275            0   -10582.705   -23486.337    741.13252    9.0496536    9.0496536    9.0496536    32.213063 
 1463000    295.83845   -11462.967            0    -10582.01   -34017.118    744.06391    9.0615692    9.0615692    9.0615692    29.729377 
 1463100     302.4203   -11481.392            0   -10580.836   -45840.086    745.08305    9.0657045    9.0657045    9.0657045     33.91782 
 1463200    307.54149   -11495.846            0    -10580.04    -28929.19    743.74149    9.0602602    9.0602602    9.0602602    33.344071 
 1463300    294.64909   -11456.956            0   -10579.541   -23796.222    740.29933    9.0462611    9.0462611    9.0462611    34.033156 
 1463400    299.29166   -11471.107            0   -10579.867   -6973.0981    735.94461    9.0284884    9.0284884    9.0284884     28.33942 
 1463500    310.07995   -11503.424            0   -10580.059    25615.994    732.03193    9.0124598    9.0124598    9.0124598    34.746472 
 1463600    300.20131   -11473.155            0   -10579.207    23614.279    729.57107    9.0023495    9.0023495    9.0023495    32.961282 
 1463700    305.41238    -11490.89            0   -10581.424    35760.877    728.91667    8.9996571    8.9996571    8.9996571    35.295857 
 1463800    310.17321   -11507.711            0   -10584.068    27937.315     730.3405    9.0055131    9.0055131    9.0055131    27.428378 
 1463900    299.51118   -11478.786            0   -10586.892    11378.585    733.42381    9.0181683    9.0181683    9.0181683    33.213286 
 1464000    306.33341   -11503.621            0   -10591.412   -4152.4985    737.30345    9.0340417    9.0340417    9.0340417     31.68478 
 1464100     307.7923   -11510.316            0   -10593.764   -19240.561    740.75599    9.0481208    9.0481208    9.0481208    33.159235 
 1464200    295.14138   -11474.355            0   -10595.475    -31661.15    742.94131    9.0570098    9.0570098    9.0570098    29.792343 
 1464300    295.55499   -11478.816            0   -10598.704   -21395.574    743.19772    9.0580516    9.0580516    9.0580516    34.409948 
 1464400      293.349   -11475.657            0   -10602.114   -17263.885    741.70006     9.051963     9.051963     9.051963    23.229962 
 1464500    289.05413   -11467.088            0   -10606.334   -9380.1006    738.94552    9.0407433    9.0407433    9.0407433      37.1104 
 1464600    306.65934   -11524.102            0   -10610.923    1878.1081    735.64588    9.0272666    9.0272666    9.0272666    34.404528 
 1464700    297.27762   -11501.242            0       -10616    8220.8887    732.74784    9.0153969    9.0153969    9.0153969    32.536299 
 1464800    300.31151   -11516.782            0   -10622.506     26420.54    730.93088     9.007939     9.007939     9.007939    32.086535 
 1464900     293.4428   -11504.177            0   -10630.354    16758.642    730.44283    9.0059337    9.0059337    9.0059337    38.271122 
 1465000    298.15661   -11528.769            0    -10640.91    28926.119    731.40614    9.0098909    9.0098909    9.0098909     30.51869 
 1465100    288.21072   -11509.497            0   -10651.254    987.23272    733.60573    9.0189139    9.0189139    9.0189139    35.179543 
 1465200    287.89046   -11516.068            0   -10658.779   -9365.3824    736.11895    9.0292012    9.0292012    9.0292012    29.265817 
 1465300    288.22255   -11525.079            0   -10666.801   -10931.538    738.23636    9.0378503    9.0378503    9.0378503     32.05617 
 1465400    289.36262   -11532.378            0   -10670.705   -21833.174    739.36631    9.0424591    9.0424591    9.0424591    38.012979 
 1465500    283.48935   -11516.975            0   -10672.792   -28703.444     739.2753    9.0420881    9.0420881    9.0420881    29.270119 
 1465600    298.99627   -11564.793            0   -10674.433    -17279.14    737.76134    9.0359114    9.0359114    9.0359114    37.592468 
 1465700    284.13227    -11516.13            0   -10670.033   -9734.0735    735.17694    9.0253481    9.0253481    9.0253481    29.597958 
 1465800    300.39342   -11562.154            0   -10667.634    6522.1046    732.58354     9.014723     9.014723     9.014723    35.964607 
 1465900    291.30607   -11525.555            0   -10658.095    19940.837    730.72036    9.0070741    9.0070741    9.0070741    32.504946 
 1466000    291.76883    -11517.16            0   -10648.322    16822.129    730.11643     9.004592     9.004592     9.004592    37.117714 
 1466100    297.27556   -11522.555            0   -10637.319    10029.487    731.05924    9.0084663    9.0084663    9.0084663    32.687535 
 1466200    293.67006   -11498.184            0   -10623.685    2410.5186    733.23084    9.0173773    9.0173773    9.0173773    37.034668 
 1466300    298.55856   -11500.048            0   -10610.991   -1996.2564    736.03353     9.028852     9.028852     9.028852    33.960336 
 1466400    303.01449   -11502.194            0   -10599.869   -6155.6453    738.67102    9.0396237    9.0396237    9.0396237    38.435387 
 1466500    292.51821     -11460.9            0    -10589.83   -16591.296    740.43835    9.0468273    9.0468273    9.0468273     30.48692 
 1466600     298.4968   -11473.367            0   -10584.495   -28421.024    740.99163    9.0490801    9.0490801    9.0490801    37.331302 
 1466700    294.09751   -11455.161            0   -10579.389   -16763.024    740.29084    9.0462265    9.0462265    9.0462265    31.772894 
 1466800    305.44022   -11486.401            0   -10576.852   -6030.6084    738.63083    9.0394598    9.0394598    9.0394598    36.908697 
 1466900    293.48923   -11447.092            0   -10573.131    14563.049    736.55919    9.0310009    9.0310009    9.0310009    28.238988 
 1467000    308.03559   -11487.752            0   -10570.474     6851.462    734.72579    9.0235015    9.0235015    9.0235015    34.403304 
 1467100    312.88861   -11500.763            0   -10569.034    11008.236    733.58721    9.0188379    9.0188379    9.0188379     32.59184 
 1467200    302.26382   -11467.176            0   -10567.086     19943.05    733.42306    9.0181652    9.0181652    9.0181652    36.093979 
 1467300    311.83178   -11496.445            0   -10567.863    2466.0605    734.12805    9.0210538    9.0210538    9.0210538    34.201491 
 1467400    299.19444    -11457.81            0    -10566.86    11615.559    735.50711     9.026699     9.026699     9.026699     33.82314 
 1467500    297.99454   -11455.006            0   -10567.629   -614.74974     737.2825    9.0339561    9.0339561    9.0339561    33.034144 
 1467600    308.82747   -11489.042            0   -10569.406   -14327.554    738.99325     9.040938     9.040938     9.040938     32.43919 
 1467700      303.271   -11474.696            0   -10571.607   -14961.807    740.10976    9.0454889    9.0454889    9.0454889    28.472702 
 1467800    300.75048   -11469.632            0   -10574.048    -20447.13    740.04158    9.0452111    9.0452111    9.0452111    38.970118 
 1467900    296.42534   -11461.496            0   -10578.792     -5687.34     738.8846    9.0404949    9.0404949    9.0404949     33.38612 
 1468000    299.21479   -11476.256            0   -10585.245   -11863.074    737.28654    9.0339726    9.0339726    9.0339726    29.541284 
 1468100    299.51533   -11484.228            0   -10592.322    5157.2858    735.58289     9.027009     9.027009     9.027009    35.879453 
 1468200    296.25061   -11483.277            0   -10601.093    15152.025    734.25153    9.0215596    9.0215596    9.0215596    34.701368 
 1468300    302.08576   -11511.607            0   -10612.048    4473.8385    733.50171    9.0184875    9.0184875    9.0184875     35.36539 
 1468400    293.49018   -11496.774            0    -10622.81    22977.296    733.49985    9.0184799    9.0184799    9.0184799    32.256382 
 1468500    284.03146   -11479.316            0   -10633.518    5125.2117    734.26131    9.0215996    9.0215996    9.0215996     34.47286 
 1468600    299.35765   -11535.498            0   -10644.062    3730.0701    735.30255     9.025862     9.025862     9.025862    28.493955 
 1468700    291.31889   -11519.189            0   -10651.692    -4586.538     736.2097    9.0295723    9.0295723    9.0295723    33.920039 
 1468800    295.38296     -11536.7            0     -10657.1   -4062.0909    736.87878    9.0323068    9.0323068    9.0323068    33.531233 
 1468900    284.89608   -11507.089            0   -10658.717   -2184.0772    737.41648    9.0345033    9.0345033    9.0345033    37.866397 
 1469000    282.24919   -11499.274            0   -10658.784   -10406.526     737.4353    9.0345801    9.0345801    9.0345801    31.725307 
 1469100    310.75444     -11584.5            0   -10659.127   -2933.9452    736.80234    9.0319945    9.0319945    9.0319945    36.389494 
 1469200    302.93353   -11556.481            0   -10654.396   -3925.3225    735.82467    9.0279979    9.0279979    9.0279979    31.878885 
 1469300    297.70396   -11535.854            0   -10649.342   -447.67823     734.8313    9.0239334    9.0239334    9.0239334    37.028441 
 1469400    293.84082   -11517.302            0   -10642.294    15226.717     734.0229    9.0206231    9.0206231    9.0206231    35.411938 
 1469500    307.85772    -11552.48            0   -10635.733    9088.5118    733.58444    9.0188266    9.0188266    9.0188266    34.620557 
 1469600    308.96205   -11546.803            0   -10626.767    3149.3394    733.62037    9.0189738    9.0189738    9.0189738    34.500476 
 1469700    304.11692    -11523.92            0   -10618.312    6075.3568    734.08081    9.0208603    9.0208603    9.0208603    31.186188 
 1469800    300.01191   -11503.101            0   -10609.717    6051.7149    734.88914    9.0241702    9.0241702    9.0241702    38.364913 
 1469900    295.39084   -11482.962            0   -10603.338    476.97189    736.03291    9.0288494    9.0288494    9.0288494     33.32335 
 1470000    306.01047   -11510.265            0   -10599.018   -11259.767    737.22529    9.0337224    9.0337224    9.0337224    32.295279 
Loop time of 3052.94 on 4 procs for 100000 steps with 1000 atoms

Performance: 2.830 ns/day, 8.480 hours/ns, 32.755 timesteps/s
87.0% CPU use with 4 MPI tasks x no OpenMP threads

MPI task timing breakdown:
Section |  min time  |  avg time  |  max time  |%varavg| %total
---------------------------------------------------------------
Pair    | 936.33     | 960.86     | 999.4      |  80.2 | 31.47
Neigh   | 364.68     | 376.39     | 387.35     |  41.4 | 12.33
Comm    | 129.46     | 178.93     | 209.56     | 237.0 |  5.86
Output  | 1051.7     | 1171.6     | 1530.8     | 605.8 | 38.38
Modify  | 4.2274     | 363.45     | 483.44     |1087.9 | 11.90
Other   |            | 1.669      |            |       |  0.05

Nlocal:    250 ave 254 max 245 min
Histogram: 1 0 0 0 0 1 1 0 0 1
Nghost:    3110 ave 3120 max 3094 min
Histogram: 1 0 0 0 1 0 0 0 0 2
Neighs:    0 ave 0 max 0 min
Histogram: 4 0 0 0 0 0 0 0 0 0
FullNghs:  79856.5 ave 81767 max 77662 min
Histogram: 1 0 0 0 0 2 0 0 0 1

Total # of neighbors = 319426
Ave neighs/atom = 319.426
Neighbor list builds = 100000
Dangerous builds not checked
Total wall time: 13:11:30
