LAMMPS (16 Mar 2018)
Reading data file ...
  orthogonal box = (-4.70401 -4.70401 -4.70401) to (4.70401 4.70401 4.70401)
  2 by 2 by 4 MPI processor grid
  reading atoms ...
  1000 atoms
Reading potential file /home/fs01/ajm529/lammps-16Mar18/potentials/sw_potentials/AG/eps2.23.sw with DATE: 2008-01-29
Neighbor list info ...
  update every 1 steps, delay 0 steps, check no
  max neighbors/atom: 2000, page size: 100000
  master list distance cutoff = 3.836
  ghost atom cutoff = 3.836
  binsize = 1.918, bins = 5 5 5
  1 neighbor lists, perpetual/occasional/extra = 1 0 0
  (1) pair sw, perpetual
      attributes: full, newton on
      pair build: full/bin/atomonly
      stencil: full/bin/3d
      bin: standard
Setting up Verlet run ...
  Unit style    : real
  Current step  : 0
  Time step     : 1
Per MPI rank memory allocation (min/avg/max) = 3.519 | 3.586 | 4.576 Mbytes
Step Temp E_pair E_mol TotEng Press Volume Lx Ly Lz S/CPU 
       0          300   -10056.352            0   -9163.0033   -22785.115    832.71255     9.408023     9.408023     9.408023            0 
     100     325.6177   -10138.013            0   -9168.3793   -31116.591    831.36694    9.4029527    9.4029527    9.4029527    45.989734 
     200    338.42559   -10192.641            0   -9184.8675   -28107.047    827.83235    9.3896081    9.3896081    9.3896081    39.161592 
     300    328.49916   -10186.708            0   -9208.4938   -11019.769     822.3278    9.3687502    9.3687502    9.3687502    46.228251 
     400    329.05039   -10210.808            0   -9230.9524   -14236.647    815.54907    9.3429358    9.3429358    9.3429358    39.550194 
     500    330.56933   -10233.978            0   -9249.5987    7543.0896    808.22166    9.3148707    9.3148707    9.3148707     39.31967 
     600    334.66388   -10262.751            0   -9266.1791   -2986.6429    801.55782    9.2891994    9.2891994    9.2891994    43.691502 
     700    335.24295   -10283.136            0   -9284.8396    8094.5606    795.75546    9.2667307    9.2667307    9.2667307    49.238814 
     800    329.09959   -10284.018            0   -9304.0159    25394.949    791.56005    9.2504165    9.2504165    9.2504165    38.996528 
     900    335.06497   -10325.617            0   -9327.8511    22108.207    789.28137    9.2415315    9.2415315    9.2415315    38.091511 
    1000    319.92188   -10303.778            0   -9351.1056    11660.747    788.20365    9.2373234    9.2373234    9.2373234    43.886536 
Loop time of 23.7507 on 16 procs for 1000 steps with 1000 atoms

Performance: 3.638 ns/day, 6.597 hours/ns, 42.104 timesteps/s
94.2% CPU use with 16 MPI tasks x no OpenMP threads

MPI task timing breakdown:
Section |  min time  |  avg time  |  max time  |%varavg| %total
---------------------------------------------------------------
Pair    | 1.2322     | 1.3001     | 1.5513     |   6.3 |  5.47
Neigh   | 0.55671    | 0.58373    | 0.70997    |   4.6 |  2.46
Comm    | 0.28189    | 0.65842    | 0.73737    |  12.9 |  2.77
Output  | 15.248     | 15.623     | 21.175     |  36.3 | 65.78
Modify  | 0.022803   | 5.5779     | 5.9541     |  60.7 | 23.49
Other   |            | 0.008024   |            |       |  0.03

Nlocal:    62.5 ave 70 max 58 min
Histogram: 3 1 1 3 3 4 0 0 0 1
Nghost:    1850.06 ave 1875 max 1826 min
Histogram: 2 0 2 0 6 0 3 2 0 1
Neighs:    0 ave 0 max 0 min
Histogram: 16 0 0 0 0 0 0 0 0 0
FullNghs:  18734.9 ave 20996 max 17455 min
Histogram: 3 2 0 4 3 2 1 0 0 1

Total # of neighbors = 299758
Ave neighs/atom = 299.758
Neighbor list builds = 1000
Dangerous builds not checked
Setting up Verlet run ...
  Unit style    : real
  Current step  : 1000
  Time step     : 1
Per MPI rank memory allocation (min/avg/max) = 3.769 | 4.528 | 4.58 Mbytes
Step Temp E_pair E_mol TotEng Press Volume Lx Ly Lz S/CPU 
    1000    319.92188   -10303.778            0   -9351.1056    11660.747    788.20365    9.2373234    9.2373234    9.2373234            0 
    1100    333.45186   -10367.997            0   -9375.0342    9692.9962    787.98993    9.2364884    9.2364884    9.2364884    45.583575 
    1200    315.49381   -10336.063            0   -9396.5763    4354.2832    788.65905     9.239102     9.239102     9.239102    41.246631 
    1300    312.50556   -10348.549            0   -9417.9613    7764.2639    789.57401    9.2426736    9.2426736    9.2426736    40.236819 
    1400    328.57156   -10417.455            0   -9439.0249    5499.9705    790.53707    9.2464299    9.2464299    9.2464299    44.162873 
    1500    305.45479   -10365.142            0   -9455.5494   -3542.5465    791.59704    9.2505606    9.2505606    9.2505606     43.95115 
    1600    317.89157   -10421.414            0   -9474.7872   -11376.778    792.65573    9.2546827    9.2546827    9.2546827    40.815314 
    1700    307.53318   -10408.141            0   -9492.3601   -18031.152     793.2692    9.2570696    9.2570696    9.2570696    41.887509 
    1800     313.2174   -10442.547            0   -9509.8391   -22922.293    793.01114    9.2560657    9.2560657    9.2560657    54.249196 
    1900    306.28575    -10439.42            0   -9527.3529   -20693.749    791.59675    9.2505595    9.2505595    9.2505595    34.901211 
    2000    298.37278   -10429.376            0   -9540.8731   -7556.6224    789.27087    9.2414906    9.2414906    9.2414906    37.738242 
Loop time of 23.8389 on 16 procs for 1000 steps with 1000 atoms

Performance: 3.624 ns/day, 6.622 hours/ns, 41.948 timesteps/s
94.2% CPU use with 16 MPI tasks x no OpenMP threads

MPI task timing breakdown:
Section |  min time  |  avg time  |  max time  |%varavg| %total
---------------------------------------------------------------
Pair    | 1.2963     | 1.3558     | 1.6412     |   6.9 |  5.69
Neigh   | 0.56439    | 0.58883    | 0.72958    |   4.9 |  2.47
Comm    | 0.28317    | 0.70831    | 0.78907    |  13.7 |  2.97
Output  | 15.02      | 15.408     | 21.153     |  37.8 | 64.63
Modify  | 0.022759   | 5.7704     | 6.1596     |  61.8 | 24.21
Other   |            | 0.008066   |            |       |  0.03

Nlocal:    62.5 ave 71 max 56 min
Histogram: 2 0 1 2 5 3 2 0 0 1
Nghost:    1854.62 ave 1882 max 1836 min
Histogram: 3 2 2 1 3 1 0 2 1 1
Neighs:    0 ave 0 max 0 min
Histogram: 16 0 0 0 0 0 0 0 0 0
FullNghs:  18723.8 ave 21173 max 16601 min
Histogram: 2 0 1 2 3 5 0 2 0 1

Total # of neighbors = 299580
Ave neighs/atom = 299.58
Neighbor list builds = 1000
Dangerous builds not checked
Setting up Verlet run ...
  Unit style    : real
  Current step  : 2000
  Time step     : 1
Per MPI rank memory allocation (min/avg/max) = 4.577 | 4.579 | 4.58 Mbytes
Step Temp E_pair E_mol TotEng Press Volume Lx Ly Lz S/CPU 
    2000    298.37278   -10429.376            0   -9540.8731   -7556.6224    789.27087    9.2414906    9.2414906    9.2414906            0 
    2100    297.11653    -10440.01            0   -9555.2479    5913.7494    786.40205    9.2302801    9.2302801    9.2302801     43.31812 
    2200    310.69278   -10492.452            0   -9567.2621    1443.2325      783.839    9.2202413    9.2202413    9.2202413    46.778321 
    2300    304.43819   -10486.709            0   -9580.1436    14693.065    781.61603    9.2115169    9.2115169    9.2115169    42.449871 
    2400    313.13222   -10525.073            0   -9592.6187    4387.9212    779.78667    9.2043248    9.2043248    9.2043248    43.415356 
    2500    309.98072    -10528.49            0   -9605.4203    17625.371    778.48873    9.1992152    9.1992152    9.1992152    45.243081 
    2600    311.29245   -10544.388            0   -9617.4119    747.93195    778.23225    9.1982048    9.1982048    9.1982048    38.393513 
    2700     293.4464   -10500.656            0   -9626.8232    13541.922    778.58332    9.1995877    9.1995877    9.1995877    36.869426 
    2800    298.06492    -10523.85            0   -9636.2631   -8176.2934    779.58054    9.2035137    9.2035137    9.2035137    33.450729 
    2900    286.99089   -10498.488            0   -9643.8784   -1054.8169    780.95047    9.2089015    9.2089015    9.2089015    34.073559 
    3000    293.32602   -10523.747            0   -9650.2726    3038.7678     782.5163    9.2150522    9.2150522    9.2150522    42.479956 
Loop time of 24.9108 on 16 procs for 1000 steps with 1000 atoms

Performance: 3.468 ns/day, 6.920 hours/ns, 40.143 timesteps/s
94.2% CPU use with 16 MPI tasks x no OpenMP threads

MPI task timing breakdown:
Section |  min time  |  avg time  |  max time  |%varavg| %total
---------------------------------------------------------------
Pair    | 1.2866     | 1.3839     | 1.6882     |   7.7 |  5.56
Neigh   | 0.57211    | 0.59185    | 0.7253     |   4.6 |  2.38
Comm    | 0.27901    | 0.7159     | 0.83066    |  14.5 |  2.87
Output  | 15.469     | 15.893     | 22.186     |  40.8 | 63.80
Modify  | 0.022706   | 6.3178     | 6.7432     |  64.7 | 25.36
Other   |            | 0.008135   |            |       |  0.03

Nlocal:    62.5 ave 68 max 58 min
Histogram: 3 0 0 3 3 1 2 1 1 2
Nghost:    1853.69 ave 1868 max 1839 min
Histogram: 2 0 2 2 1 3 2 1 1 2
Neighs:    0 ave 0 max 0 min
Histogram: 16 0 0 0 0 0 0 0 0 0
FullNghs:  18864 ave 20747 max 17286 min
Histogram: 3 0 0 4 2 3 0 2 1 1

Total # of neighbors = 301824
Ave neighs/atom = 301.824
Neighbor list builds = 1000
Dangerous builds not checked
Setting up Verlet run ...
  Unit style    : real
  Current step  : 3000
  Time step     : 1
Per MPI rank memory allocation (min/avg/max) = 4.577 | 4.579 | 4.58 Mbytes
Step Temp E_pair E_mol TotEng Press Volume Lx Ly Lz S/CPU 
    3000    293.32602   -10523.747            0   -9650.2726    3038.7678     782.5163    9.2150522    9.2150522    9.2150522            0 
    3100    300.96768   -10550.199            0   -9653.9689   -8765.6168    784.06819    9.2211399    9.2211399    9.2211399    40.195111 
    3200    304.07112    -10563.26            0   -9657.7883   -4923.0029    785.28271    9.2258986    9.2258986    9.2258986    43.934904 
    3300    298.28824   -10545.909            0   -9657.6581   -12711.562    786.16399    9.2293486    9.2293486    9.2293486    39.531017 
    3400    288.01563   -10514.071            0   -9656.4099   -8803.7633    786.61674      9.23112      9.23112      9.23112    43.024572 
    3500    296.81347   -10537.887            0   -9654.0277   -23432.489    786.57218    9.2309457    9.2309457    9.2309457    41.100311 
    3600    281.37395   -10485.577            0   -9647.6937   -3019.3641    785.65339    9.2273501    9.2273501    9.2273501    46.185627 
    3700     297.4963   -10525.142            0   -9639.2486    2231.0374    784.35381    9.2222595    9.2222595    9.2222595    43.358359 
    3800    287.80563   -10484.655            0   -9627.6187    24183.774    783.13176    9.2174674    9.2174674    9.2174674    34.831331 
    3900    290.71324    -10482.61            0   -9616.9152    7604.7373     782.5049    9.2150074    9.2150074    9.2150074    39.465186 
    4000     299.1361    -10497.31            0   -9606.5333    7586.3368     782.5183      9.21506      9.21506      9.21506    40.805875 
Loop time of 24.378 on 16 procs for 1000 steps with 1000 atoms

Performance: 3.544 ns/day, 6.772 hours/ns, 41.021 timesteps/s
94.2% CPU use with 16 MPI tasks x no OpenMP threads

MPI task timing breakdown:
Section |  min time  |  avg time  |  max time  |%varavg| %total
---------------------------------------------------------------
Pair    | 1.2997     | 1.3704     | 1.7107     |   8.1 |  5.62
Neigh   | 0.56577    | 0.59074    | 0.73438    |   5.0 |  2.42
Comm    | 0.25864    | 0.74132    | 0.83358    |  15.1 |  3.04
Output  | 14.953     | 15.376     | 21.642     |  41.3 | 63.07
Modify  | 0.022523   | 6.2918     | 6.7158     |  64.5 | 25.81
Other   |            | 0.008085   |            |       |  0.03

Nlocal:    62.5 ave 71 max 57 min
Histogram: 1 3 2 2 3 3 0 1 0 1
Nghost:    1852.44 ave 1868 max 1833 min
Histogram: 2 0 2 0 2 3 1 1 3 2
Neighs:    0 ave 0 max 0 min
Histogram: 16 0 0 0 0 0 0 0 0 0
FullNghs:  18874.8 ave 21683 max 17332 min
Histogram: 2 3 1 3 4 1 1 0 0 1

Total # of neighbors = 301996
Ave neighs/atom = 301.996
Neighbor list builds = 1000
Dangerous builds not checked
Setting up Verlet run ...
  Unit style    : real
  Current step  : 4000
  Time step     : 1
Per MPI rank memory allocation (min/avg/max) = 4.577 | 4.579 | 4.58 Mbytes
Step Temp E_pair E_mol TotEng Press Volume Lx Ly Lz S/CPU 
    4000     299.1361    -10497.31            0   -9606.5333    7586.3368     782.5183      9.21506      9.21506      9.21506            0 
    4100    297.03165   -10481.398            0   -9596.8889    9178.8092    782.92336    9.2166497    9.2166497    9.2166497    35.163001 
    4200    312.30265   -10518.792            0   -9588.8082     8344.438    784.21876    9.2217302    9.2217302    9.2217302    45.653324 
    4300    309.82023   -10503.952            0   -9581.3598    11782.369    786.33059    9.2300005    9.2300005    9.2300005    35.738612 
    4400    299.27197   -10465.461            0   -9574.2797   -6755.2056    788.77937    9.2395719    9.2395719    9.2395719    45.973825 
    4500     309.3336   -10490.236            0   -9569.0935    522.74492    791.12157    9.2487081    9.2487081    9.2487081    42.155605 
    4600    302.62479   -10464.238            0   -9563.0727   -24889.016    792.92085    9.2557144    9.2557144    9.2557144    45.831372 
    4700     305.1638   -10467.612            0   -9558.8858    -10023.48    793.81576    9.2591952    9.2591952    9.2591952    46.896525 
    4800    306.52961   -10467.704            0   -9554.9117   -20668.585    794.01436    9.2599673    9.2599673    9.2599673    41.329618 
    4900    307.98266    -10470.85            0   -9553.7302   -3674.0696    793.23983    9.2569554    9.2569554    9.2569554    53.422639 
    5000    306.57839   -10466.225            0   -9553.2868   -5551.2593    791.83156    9.2514741    9.2514741    9.2514741    39.932117 
Loop time of 23.4897 on 16 procs for 1000 steps with 1000 atoms

Performance: 3.678 ns/day, 6.525 hours/ns, 42.572 timesteps/s
94.2% CPU use with 16 MPI tasks x no OpenMP threads

MPI task timing breakdown:
Section |  min time  |  avg time  |  max time  |%varavg| %total
---------------------------------------------------------------
Pair    | 1.2813     | 1.3572     | 1.6426     |   7.0 |  5.78
Neigh   | 0.56875    | 0.59031    | 0.73287    |   5.0 |  2.51
Comm    | 0.24538    | 0.67199    | 0.76412    |  14.4 |  2.86
Output  | 14.373     | 14.782     | 20.837     |  40.7 | 62.93
Modify  | 0.022792   | 6.0805     | 6.4908     |  63.4 | 25.89
Other   |            | 0.008096   |            |       |  0.03

Nlocal:    62.5 ave 67 max 60 min
Histogram: 3 2 3 0 4 2 0 1 0 1
Nghost:    1847.5 ave 1867 max 1826 min
Histogram: 1 1 2 1 3 1 2 2 1 2
Neighs:    0 ave 0 max 0 min
Histogram: 16 0 0 0 0 0 0 0 0 0
FullNghs:  18637.2 ave 20117 max 17760 min
Histogram: 3 1 1 5 1 3 0 1 0 1

Total # of neighbors = 298196
Ave neighs/atom = 298.196
Neighbor list builds = 1000
Dangerous builds not checked
Setting up Verlet run ...
  Unit style    : real
  Current step  : 5000
  Time step     : 1
Per MPI rank memory allocation (min/avg/max) = 4.577 | 4.579 | 4.58 Mbytes
Step Temp E_pair E_mol TotEng Press Volume Lx Ly Lz S/CPU 
    5000    306.57839   -10466.225            0   -9553.2868   -5551.2593    791.83156    9.2514741    9.2514741    9.2514741            0 
    5100    304.69577    -10460.14            0   -9552.8085   -5212.2191    789.91696    9.2440115    9.2440115    9.2440115    43.495876 
    5200    303.18124   -10456.855            0   -9554.0332    22556.964    787.91777    9.2362065    9.2362065    9.2362065    36.443374 
    5300    302.16552   -10456.428            0   -9556.6302    10878.037    786.27403    9.2297792    9.2297792    9.2297792    37.858584 
    5400    308.34687   -10480.648            0    -9562.444    7824.7366    784.81724    9.2240754    9.2240754    9.2240754    47.165506 
    5500    298.67939   -10457.697            0   -9568.2807    24234.665     783.7653    9.2199524    9.2199524    9.2199524    53.530251 
    5600    307.77255   -10495.264            0   -9578.7702    14714.995    783.48631    9.2188583    9.2188583    9.2188583    43.853576 
    5700    298.63468    -10479.13            0   -9589.8473   -2618.2083    783.88044    9.2204038    9.2204038    9.2204038     34.12763 
    5800    298.79225   -10491.977            0   -9602.2251   -4101.0861    784.54339    9.2230024    9.2230024    9.2230024    37.157894 
    5900    296.29972   -10495.287            0    -9612.957    10232.466    785.58496    9.2270821    9.2270821    9.2270821    44.065881 
    6000    291.92128    -10491.96            0   -9622.6678   -19461.269     786.5161    9.2307263    9.2307263    9.2307263    39.178388 
Loop time of 24.3962 on 16 procs for 1000 steps with 1000 atoms

Performance: 3.542 ns/day, 6.777 hours/ns, 40.990 timesteps/s
94.2% CPU use with 16 MPI tasks x no OpenMP threads

MPI task timing breakdown:
Section |  min time  |  avg time  |  max time  |%varavg| %total
---------------------------------------------------------------
Pair    | 1.2849     | 1.369      | 1.7        |   8.0 |  5.61
Neigh   | 0.56662    | 0.58996    | 0.72836    |   4.8 |  2.42
Comm    | 0.23805    | 0.70603    | 0.80851    |  15.3 |  2.89
Output  | 14.898     | 15.327     | 21.698     |  42.0 | 62.83
Modify  | 0.022231   | 6.3958     | 6.8268     |  65.1 | 26.22
Other   |            | 0.008057   |            |       |  0.03

Nlocal:    62.5 ave 67 max 56 min
Histogram: 2 1 0 0 1 3 2 4 0 3
Nghost:    1852.62 ave 1882 max 1835 min
Histogram: 2 2 2 2 5 0 2 0 0 1
Neighs:    0 ave 0 max 0 min
Histogram: 16 0 0 0 0 0 0 0 0 0
FullNghs:  18752.6 ave 20196 max 16734 min
Histogram: 2 0 1 0 2 2 2 4 1 2

Total # of neighbors = 300042
Ave neighs/atom = 300.042
Neighbor list builds = 1000
Dangerous builds not checked
Setting up Verlet run ...
  Unit style    : real
  Current step  : 6000
  Time step     : 1
Per MPI rank memory allocation (min/avg/max) = 4.577 | 4.579 | 4.58 Mbytes
Step Temp E_pair E_mol TotEng Press Volume Lx Ly Lz S/CPU 
    6000    291.92128    -10491.96            0   -9622.6678   -19461.269     786.5161    9.2307263    9.2307263    9.2307263            0 
    6100    310.46962   -10554.811            0   -9630.2851   -14363.838     786.6345    9.2311894    9.2311894    9.2311894     46.38069 
    6200    298.70042   -10525.022            0   -9635.5428   -2953.1051    786.24445    9.2296634    9.2296634    9.2296634    44.674689 
    6300    295.24137   -10517.673            0   -9638.4947   -9233.1307    785.95247    9.2285208    9.2285208    9.2285208    40.204571 
    6400    289.83156   -10503.625            0   -9640.5559    5145.5812    785.38445     9.226297     9.226297     9.226297    38.774354 
    6500    295.88399   -10523.373            0   -9642.2806    5074.2436    784.55643    9.2230535    9.2230535    9.2230535    40.385095 
    6600    304.12066   -10549.427            0   -9643.8078   -1353.4608    783.75433    9.2199094    9.2199094    9.2199094    39.936628 
    6700    301.32526   -10540.759            0   -9643.4641    2252.5672    783.14784    9.2175305    9.2175305    9.2175305    37.861228 
    6800    310.34639   -10566.811            0   -9642.6521    5997.8499    782.77081    9.2160511    9.2160511    9.2160511    36.486503 
    6900    284.09926    -10486.98            0   -9640.9807    1724.7405    782.61199    9.2154278    9.2154278    9.2154278    40.427171 
    7000    289.55019   -10501.229            0   -9638.9977    2276.9519    782.74848    9.2159635    9.2159635    9.2159635    41.754011 
Loop time of 24.6915 on 16 procs for 1000 steps with 1000 atoms

Performance: 3.499 ns/day, 6.859 hours/ns, 40.500 timesteps/s
94.2% CPU use with 16 MPI tasks x no OpenMP threads

MPI task timing breakdown:
Section |  min time  |  avg time  |  max time  |%varavg| %total
---------------------------------------------------------------
Pair    | 1.2754     | 1.3743     | 1.7155     |   8.2 |  5.57
Neigh   | 0.56282    | 0.59133    | 0.74492    |   5.3 |  2.39
Comm    | 0.25046    | 0.74405    | 0.86891    |  15.6 |  3.01
Output  | 14.994     | 15.434     | 21.948     |  42.8 | 62.51
Modify  | 0.022826   | 6.5398     | 6.9807     |  65.8 | 26.49
Other   |            | 0.008104   |            |       |  0.03

Nlocal:    62.5 ave 67 max 58 min
Histogram: 1 2 2 0 2 2 4 1 1 1
Nghost:    1860.19 ave 1875 max 1849 min
Histogram: 2 4 1 1 0 2 3 1 1 1
Neighs:    0 ave 0 max 0 min
Histogram: 16 0 0 0 0 0 0 0 0 0
FullNghs:  18857.5 ave 20318 max 17416 min
Histogram: 1 3 1 0 2 2 4 1 0 2

Total # of neighbors = 301720
Ave neighs/atom = 301.72
Neighbor list builds = 1000
Dangerous builds not checked
Setting up Verlet run ...
  Unit style    : real
  Current step  : 7000
  Time step     : 1
Per MPI rank memory allocation (min/avg/max) = 4.577 | 4.579 | 4.58 Mbytes
Step Temp E_pair E_mol TotEng Press Volume Lx Ly Lz S/CPU 
    7000    289.55019   -10501.229            0   -9638.9977    2276.9519    782.74848    9.2159635    9.2159635    9.2159635            0 
    7100    309.46491   -10558.272            0   -9636.7381    2424.8141    783.60266    9.2193146    9.2193146    9.2193146     39.38432 
    7200    291.56308   -10499.441            0   -9631.2159    4271.5856    785.20612    9.2255987    9.2255987    9.2255987    38.664093 
    7300    295.28423   -10505.189            0   -9625.8832    -6467.881    787.06518    9.2328738    9.2328738    9.2328738    43.887415 
    7400    298.45403   -10507.132            0   -9618.3865    -2406.829    788.91697    9.2401091    9.2401091    9.2401091    47.678195 
    7500    302.43579   -10507.943            0   -9607.3408    1010.8547    790.69602    9.2470495    9.2470495    9.2470495    45.675048 
    7600     298.1392   -10482.853            0   -9595.0451   -2911.1034    792.20308    9.2529208    9.2529208    9.2529208    41.571896 
    7700     295.0433     -10457.9            0   -9579.3118    2073.6223    793.26284    9.2570449    9.2570449    9.2570449    37.576301 
    7800    294.23371   -10439.734            0    -9563.556   -9155.2535    794.22912    9.2608021    9.2608021    9.2608021    36.591024 
    7900     309.7512   -10473.126            0     -9550.74   -6818.5434    794.85608    9.2632382    9.2632382    9.2632382    40.130997 
    8000    314.88327   -10480.457            0   -9542.7884   -13296.242     795.1589    9.2644144    9.2644144    9.2644144     45.45887 
Loop time of 24.1821 on 16 procs for 1000 steps with 1000 atoms

Performance: 3.573 ns/day, 6.717 hours/ns, 41.353 timesteps/s
94.2% CPU use with 16 MPI tasks x no OpenMP threads

MPI task timing breakdown:
Section |  min time  |  avg time  |  max time  |%varavg| %total
---------------------------------------------------------------
Pair    | 1.2544     | 1.356      | 1.6814     |   8.1 |  5.61
Neigh   | 0.56089    | 0.59045    | 0.74375    |   5.4 |  2.44
Comm    | 0.25156    | 0.72902    | 0.85955    |  15.7 |  3.01
Output  | 15.214     | 15.61      | 21.473     |  38.3 | 64.55
Modify  | 0.022915   | 5.8887     | 6.2859     |  62.4 | 24.35
Other   |            | 0.008055   |            |       |  0.03

Nlocal:    62.5 ave 70 max 56 min
Histogram: 1 1 3 2 1 4 1 1 1 1
Nghost:    1831.94 ave 1856 max 1810 min
Histogram: 1 4 3 0 0 1 1 3 1 2
Neighs:    0 ave 0 max 0 min
Histogram: 16 0 0 0 0 0 0 0 0 0
FullNghs:  18550.1 ave 21068 max 16351 min
Histogram: 1 1 2 3 3 1 2 1 1 1

Total # of neighbors = 296802
Ave neighs/atom = 296.802
Neighbor list builds = 1000
Dangerous builds not checked
Setting up Verlet run ...
  Unit style    : real
  Current step  : 8000
  Time step     : 1
Per MPI rank memory allocation (min/avg/max) = 4.577 | 4.579 | 4.58 Mbytes
Step Temp E_pair E_mol TotEng Press Volume Lx Ly Lz S/CPU 
    8000    314.88327   -10480.457            0   -9542.7884   -13296.242     795.1589    9.2644144    9.2644144    9.2644144            0 
    8100    308.00642   -10454.811            0   -9537.6203   -16771.577    794.77108     9.262908     9.262908     9.262908    47.010899 
    8200    308.32292   -10454.222            0   -9536.0891    464.24381    793.61562     9.258417     9.258417     9.258417    54.309135 
    8300    314.33732   -10472.278            0   -9536.2352   -12357.357    792.00248    9.2521397    9.2521397    9.2521397    36.941367 
    8400    306.51575   -10450.145            0   -9537.3932    8101.8864      789.918    9.2440156    9.2440156    9.2440156    41.662852 
    8500    307.83501   -10455.696            0   -9539.0162   -1614.9207    787.88667    9.2360849    9.2360849    9.2360849     44.61252 
    8600     312.0493   -10471.189            0   -9541.9592   -1950.6709    785.92863    9.2284275    9.2284275    9.2284275    43.526897 
    8700    309.88061   -10467.528            0   -9544.7566    11679.062    784.00719    9.2209008    9.2209008    9.2209008    42.598282 
    8800    305.99167   -10463.088            0   -9551.8968   -4814.0922    782.36298    9.2144503    9.2144503    9.2144503    49.103581 
    8900    296.81843   -10443.985            0   -9560.1101    17660.123    780.87858     9.208619     9.208619     9.208619    49.159462 
    9000    313.63676   -10505.829            0    -9571.872    4566.9266    779.89329    9.2047443    9.2047443    9.2047443     42.31476 
Loop time of 22.3961 on 16 procs for 1000 steps with 1000 atoms

Performance: 3.858 ns/day, 6.221 hours/ns, 44.651 timesteps/s
94.3% CPU use with 16 MPI tasks x no OpenMP threads

MPI task timing breakdown:
Section |  min time  |  avg time  |  max time  |%varavg| %total
---------------------------------------------------------------
Pair    | 1.2737     | 1.3649     | 1.6792     |   7.5 |  6.09
Neigh   | 0.56706    | 0.59161    | 0.74252    |   5.2 |  2.64
Comm    | 0.25735    | 0.72162    | 0.8351     |  14.7 |  3.22
Output  | 13.797     | 14.17      | 19.685     |  37.8 | 63.27
Modify  | 0.022904   | 5.5404     | 5.9143     |  60.5 | 24.74
Other   |            | 0.008063   |            |       |  0.04

Nlocal:    62.5 ave 66 max 58 min
Histogram: 1 1 3 1 0 2 1 3 1 3
Nghost:    1858.06 ave 1872 max 1845 min
Histogram: 4 2 0 1 1 1 0 3 1 3
Neighs:    0 ave 0 max 0 min
Histogram: 16 0 0 0 0 0 0 0 0 0
FullNghs:  18918.6 ave 20133 max 17577 min
Histogram: 1 1 3 1 2 1 2 1 1 3

Total # of neighbors = 302698
Ave neighs/atom = 302.698
Neighbor list builds = 1000
Dangerous builds not checked
Setting up Verlet run ...
  Unit style    : real
  Current step  : 9000
  Time step     : 1
Per MPI rank memory allocation (min/avg/max) = 4.577 | 4.579 | 4.58 Mbytes
Step Temp E_pair E_mol TotEng Press Volume Lx Ly Lz S/CPU 
    9000    313.63676   -10505.829            0    -9571.872    4566.9266    779.89329    9.2047443    9.2047443    9.2047443            0 
    9100    296.44685   -10464.434            0   -9581.6663    6905.8186     779.6243    9.2036859    9.2036859    9.2036859    38.927501 
    9200    299.69391    -10483.87            0   -9591.4326    4268.5086    779.75149    9.2041864    9.2041864    9.2041864    44.394694 
    9300    304.02701   -10506.076            0   -9600.7358     1663.171    780.14806    9.2057465    9.2057465    9.2057465    30.147663 
    9400    296.96377   -10491.754            0   -9607.4464    7609.3332    780.55506    9.2073471    9.2073471    9.2073471    53.823035 
    9500     292.3249   -10484.918            0   -9614.4248   -1168.4155    781.40079    9.2106712    9.2106712    9.2106712    35.245155 
    9600    282.34576   -10459.692            0   -9618.9143    -7431.841    782.24408    9.2139835    9.2139835    9.2139835    61.761898 
    9700    302.55386   -10525.089            0   -9624.1354   -16313.563    782.65537     9.215598     9.215598     9.215598    38.229452 
    9800    299.25993   -10516.773            0   -9625.6285   -18231.715    782.65069    9.2155796    9.2155796    9.2155796    42.055053 
    9900    296.85986   -10510.596            0    -9626.598   -14925.774    781.87345     9.212528     9.212528     9.212528    47.881681 
   10000    305.44126   -10537.356            0   -9627.8037   -7510.0951    780.18576    9.2058948    9.2058948    9.2058948    37.711135 
Loop time of 24.1866 on 16 procs for 1000 steps with 1000 atoms

Performance: 3.572 ns/day, 6.719 hours/ns, 41.345 timesteps/s
94.2% CPU use with 16 MPI tasks x no OpenMP threads

MPI task timing breakdown:
Section |  min time  |  avg time  |  max time  |%varavg| %total
---------------------------------------------------------------
Pair    | 1.2924     | 1.3876     | 1.6745     |   7.2 |  5.74
Neigh   | 0.56102    | 0.59166    | 0.72268    |   4.7 |  2.45
Comm    | 0.24689    | 0.66361    | 0.7871     |  14.5 |  2.74
Output  | 15.582     | 15.957     | 21.511     |  35.9 | 65.97
Modify  | 0.022517   | 5.5788     | 5.9555     |  60.7 | 23.07
Other   |            | 0.008093   |            |       |  0.03

Nlocal:    62.5 ave 67 max 57 min
Histogram: 1 1 3 2 0 0 0 4 0 5
Nghost:    1859.38 ave 1884 max 1841 min
Histogram: 3 2 1 2 1 2 2 1 1 1
Neighs:    0 ave 0 max 0 min
Histogram: 16 0 0 0 0 0 0 0 0 0
FullNghs:  18918.8 ave 20263 max 17394 min
Histogram: 2 2 3 0 0 0 3 1 1 4

Total # of neighbors = 302700
Ave neighs/atom = 302.7
Neighbor list builds = 1000
Dangerous builds not checked
Setting up Verlet run ...
  Unit style    : real
  Current step  : 10000
  Time step     : 1
Per MPI rank memory allocation (min/avg/max) = 4.577 | 4.579 | 4.58 Mbytes
Step Temp E_pair E_mol TotEng Press Volume Lx Ly Lz S/CPU 
   10000    305.44126   -10537.356            0   -9627.8037   -7510.0951    780.18576    9.2058948    9.2058948    9.2058948            0 
   10100    307.04264   -10541.682            0   -9627.3618    6314.7275    777.93648    9.1970394    9.1970394    9.1970394    54.058152 
   10200    294.27545   -10503.004            0   -9626.7022    16849.542    775.78654    9.1885591    9.1885591    9.1885591    35.715857 
   10300     303.4224   -10531.043            0    -9627.503    32101.786    774.64929     9.184067     9.184067     9.184067    58.591364 
   10400    299.20709   -10517.025            0   -9626.0371    13575.361    774.97585    9.1853574    9.1853574    9.1853574    39.192422 
   10500    294.18262   -10501.815            0   -9625.7898    5165.9438    776.28905    9.1905426    9.1905426    9.1905426    47.909244 
   10600    293.37484   -10499.232            0   -9625.6117    10697.792    778.42632    9.1989693    9.1989693    9.1989693    42.613499 
   10700    295.68341   -10506.469            0   -9625.9747     -14279.4    781.05689    9.2093198    9.2093198    9.2093198    43.663813 
   10800    296.66983   -10506.874            0   -9623.4415   -22234.991    783.43977    9.2186757    9.2186757    9.2186757    37.185916 
   10900    295.82862   -10499.759            0   -9618.8317   -14382.104    784.94177    9.2245633    9.2245633    9.2245633    43.446936 
   11000    300.96283   -10509.377            0   -9613.1607   -6241.5173    785.23021     9.225693     9.225693     9.225693    39.573706 
Loop time of 23.15 on 16 procs for 1000 steps with 1000 atoms

Performance: 3.732 ns/day, 6.431 hours/ns, 43.197 timesteps/s
94.3% CPU use with 16 MPI tasks x no OpenMP threads

MPI task timing breakdown:
Section |  min time  |  avg time  |  max time  |%varavg| %total
---------------------------------------------------------------
Pair    | 1.3406     | 1.3961     | 1.7603     |   8.3 |  6.03
Neigh   | 0.5694     | 0.59401    | 0.76509    |   5.8 |  2.57
Comm    | 0.23548    | 0.76945    | 0.84616    |  16.1 |  3.32
Output  | 14.183     | 14.574     | 20.357     |  39.1 | 62.95
Modify  | 0.022716   | 5.8084     | 6.2006     |  62.0 | 25.09
Other   |            | 0.008178   |            |       |  0.04

Nlocal:    62.5 ave 67 max 58 min
Histogram: 1 0 2 3 2 2 3 2 0 1
Nghost:    1871.25 ave 1885 max 1854 min
Histogram: 1 2 0 1 2 3 1 2 2 2
Neighs:    0 ave 0 max 0 min
Histogram: 16 0 0 0 0 0 0 0 0 0
FullNghs:  18796.9 ave 20354 max 17305 min
Histogram: 1 0 2 3 2 2 4 1 0 1

Total # of neighbors = 300750
Ave neighs/atom = 300.75
Neighbor list builds = 1000
Dangerous builds not checked
Setting up Verlet run ...
  Unit style    : real
  Current step  : 11000
  Time step     : 1
Per MPI rank memory allocation (min/avg/max) = 4.577 | 4.579 | 4.58 Mbytes
Step Temp E_pair E_mol TotEng Press Volume Lx Ly Lz S/CPU 
   11000    300.96283   -10509.377            0   -9613.1607   -6241.5173    785.23021     9.225693     9.225693     9.225693            0 
   11100    299.33684   -10494.273            0   -9602.8994   -19715.982    785.01941    9.2248674    9.2248674    9.2248674    43.588553 
   11200    310.63016   -10515.609            0   -9590.6059   -10846.733    784.19424     9.221634     9.221634     9.221634    45.494306 
   11300    306.79421   -10490.462            0   -9576.8812    7334.5576    783.08209    9.2172726    9.2172726    9.2172726    46.400451 
   11400     311.8006    -10494.52            0    -9566.031    6710.5307    782.52761    9.2150966    9.2150966    9.2150966    42.091812 
   11500    299.73076   -10449.968            0   -9557.4206    8654.0507    783.00072    9.2169533    9.2169533    9.2169533    40.593969 
   11600    296.08659   -10432.562            0   -9550.8665    20651.449     784.5689    9.2231024    9.2231024    9.2231024    45.712795 
   11700     308.9385   -10466.902            0   -9546.9356    7824.2689    786.89486    9.2322078    9.2322078    9.2322078    42.902706 
   11800    308.91556   -10464.556            0   -9544.6583   -4981.6741    789.72992    9.2432819    9.2432819    9.2432819    63.687881 
   11900     299.1914   -10433.058            0   -9542.1166     672.7311    792.98288    9.2559558    9.2559558    9.2559558    34.439171 
   12000    308.54514   -10459.037            0   -9540.2427   -13255.321    796.23992    9.2686109    9.2686109    9.2686109    35.594838 
Loop time of 23.2883 on 16 procs for 1000 steps with 1000 atoms

Performance: 3.710 ns/day, 6.469 hours/ns, 42.940 timesteps/s
94.2% CPU use with 16 MPI tasks x no OpenMP threads

MPI task timing breakdown:
Section |  min time  |  avg time  |  max time  |%varavg| %total
---------------------------------------------------------------
Pair    | 1.301      | 1.3702     | 1.6604     |   7.2 |  5.88
Neigh   | 0.57223    | 0.59147    | 0.73564    |   4.9 |  2.54
Comm    | 0.26661    | 0.70019    | 0.78466    |  14.3 |  3.01
Output  | 14.098     | 14.509     | 20.593     |  41.2 | 62.30
Modify  | 0.023196   | 6.1093     | 6.5212     |  63.6 | 26.23
Other   |            | 0.008128   |            |       |  0.03

Nlocal:    62.5 ave 68 max 57 min
Histogram: 1 1 2 3 0 5 1 0 0 3
Nghost:    1840 ave 1861 max 1825 min
Histogram: 1 2 3 4 2 0 0 2 1 1
Neighs:    0 ave 0 max 0 min
Histogram: 16 0 0 0 0 0 0 0 0 0
FullNghs:  18534.1 ave 20122 max 16991 min
Histogram: 1 0 3 3 0 5 1 0 1 2

Total # of neighbors = 296546
Ave neighs/atom = 296.546
Neighbor list builds = 1000
Dangerous builds not checked
Setting up Verlet run ...
  Unit style    : real
  Current step  : 12000
  Time step     : 1
Per MPI rank memory allocation (min/avg/max) = 4.577 | 4.579 | 4.58 Mbytes
Step Temp E_pair E_mol TotEng Press Volume Lx Ly Lz S/CPU 
   12000    308.54514   -10459.037            0   -9540.2427   -13255.321    796.23992    9.2686109    9.2686109    9.2686109            0 
   12100    296.25687   -10420.806            0   -9538.6037   -20969.505    798.87546    9.2788259    9.2788259    9.2788259    40.461784 
   12200    310.71941   -10464.355            0   -9539.0859   -22379.626    800.20583    9.2839738    9.2839738    9.2839738     50.17399 
   12300    307.42329   -10455.664            0   -9540.2099   -29777.829    799.77758    9.2823173    9.2823173    9.2823173    40.223331 
   12400    300.33388   -10437.558            0   -9543.2145    -25996.71    797.34355    9.2728911    9.2728911    9.2728911    33.819883 
   12500      311.734   -10477.672            0   -9549.3818   -4655.6742    793.24104    9.2569601    9.2569601    9.2569601     42.38156 
   12600    303.92757   -10460.003            0   -9554.9584   -5289.9824    788.71635    9.2393258    9.2393258    9.2393258    45.709264 
   12700    310.96505   -10493.334            0   -9567.3332   -10626.736    784.12945      9.22138      9.22138      9.22138    45.094889 
   12800    287.43646   -10433.281            0   -9577.3443    8155.4213    779.86047    9.2046152    9.2046152    9.2046152    38.160797 
   12900      294.658   -10468.542            0   -9591.1005    30039.101    776.54293    9.1915444    9.1915444    9.1915444    45.759574 
   13000    309.83159   -10527.389            0   -9604.7633    23220.909    774.46595    9.1833424    9.1833424    9.1833424    36.133586 
Loop time of 24.2457 on 16 procs for 1000 steps with 1000 atoms

Performance: 3.564 ns/day, 6.735 hours/ns, 41.244 timesteps/s
94.2% CPU use with 16 MPI tasks x no OpenMP threads

MPI task timing breakdown:
Section |  min time  |  avg time  |  max time  |%varavg| %total
---------------------------------------------------------------
Pair    | 1.2771     | 1.3551     | 1.6433     |   8.0 |  5.59
Neigh   | 0.56221    | 0.58899    | 0.72604    |   4.8 |  2.43
Comm    | 0.26543    | 0.68971    | 0.79041    |  15.3 |  2.84
Output  | 15.281     | 15.679     | 21.579     |  38.5 | 64.67
Modify  | 0.022575   | 5.9244     | 6.3238     |  62.6 | 24.43
Other   |            | 0.008064   |            |       |  0.03

Nlocal:    62.5 ave 69 max 58 min
Histogram: 5 1 2 1 1 0 3 0 1 2
Nghost:    1871.19 ave 1887 max 1853 min
Histogram: 2 1 2 2 1 1 0 2 1 4
Neighs:    0 ave 0 max 0 min
Histogram: 16 0 0 0 0 0 0 0 0 0
FullNghs:  19072 ave 21340 max 17542 min
Histogram: 3 3 2 0 2 1 2 0 1 2

Total # of neighbors = 305152
Ave neighs/atom = 305.152
Neighbor list builds = 1000
Dangerous builds not checked
Setting up Verlet run ...
  Unit style    : real
  Current step  : 13000
  Time step     : 1
Per MPI rank memory allocation (min/avg/max) = 4.577 | 4.579 | 4.58 Mbytes
Step Temp E_pair E_mol TotEng Press Volume Lx Ly Lz S/CPU 
   13000    309.83159   -10527.389            0   -9604.7633    23220.909    774.46595    9.1833424    9.1833424    9.1833424            0 
   13100     298.3292   -10503.204            0   -9614.8304    22664.577    774.01466    9.1815583    9.1815583    9.1815583    41.668381 
   13200    299.35948   -10515.895            0   -9624.4532    22898.582    775.20343    9.1862564    9.1862564    9.1862564    42.177581 
   13300     296.9358   -10513.174            0   -9628.9496   -4588.1196    777.32742    9.1946386    9.1946386    9.1946386    45.705915 
   13400    298.15637   -10522.101            0   -9634.2425   -10204.041    779.52831    9.2033081    9.2033081    9.2033081    50.661185 
   13500    301.87532   -10536.135            0   -9637.2017    3576.2439    781.41759    9.2107373    9.2107373    9.2107373     39.63025 
   13600     289.0277   -10499.203            0   -9638.5274    5856.3779     783.2179    9.2178054    9.2178054    9.2178054    44.799688 
   13700     287.9376    -10497.19            0   -9639.7613   -13206.889    785.10056    9.2251852    9.2251852    9.2251852    41.438465 
   13800    295.81417   -10520.061            0   -9639.1766   -12174.164    786.68789    9.2313983    9.2313983    9.2313983    39.116826 
   13900    286.98601   -10490.911            0   -9636.3158   -12626.392    787.84436    9.2359196    9.2359196    9.2359196    54.437244 
   14000    280.35377   -10466.096            0   -9631.2505   -6531.2352    788.51688    9.2385468    9.2385468    9.2385468    44.599366 
Loop time of 22.737 on 16 procs for 1000 steps with 1000 atoms

Performance: 3.800 ns/day, 6.316 hours/ns, 43.981 timesteps/s
94.3% CPU use with 16 MPI tasks x no OpenMP threads

MPI task timing breakdown:
Section |  min time  |  avg time  |  max time  |%varavg| %total
---------------------------------------------------------------
Pair    | 1.3075     | 1.385      | 1.7182     |   7.9 |  6.09
Neigh   | 0.56614    | 0.59252    | 0.75518    |   5.6 |  2.61
Comm    | 0.24592    | 0.74069    | 0.84109    |  15.6 |  3.26
Output  | 13.9       | 14.285     | 19.985     |  38.9 | 62.83
Modify  | 0.022773   | 5.7252     | 6.1116     |  61.5 | 25.18
Other   |            | 0.00813    |            |       |  0.04

Nlocal:    62.5 ave 67 max 59 min
Histogram: 3 1 1 3 0 4 0 2 0 2
Nghost:    1844.38 ave 1859 max 1827 min
Histogram: 1 0 0 3 1 4 4 2 0 1
Neighs:    0 ave 0 max 0 min
Histogram: 16 0 0 0 0 0 0 0 0 0
FullNghs:  18711.8 ave 20074 max 17636 min
Histogram: 3 1 1 3 1 3 0 2 0 2

Total # of neighbors = 299388
Ave neighs/atom = 299.388
Neighbor list builds = 1000
Dangerous builds not checked
Setting up Verlet run ...
  Unit style    : real
  Current step  : 14000
  Time step     : 1
Per MPI rank memory allocation (min/avg/max) = 4.577 | 4.579 | 4.58 Mbytes
Step Temp E_pair E_mol TotEng Press Volume Lx Ly Lz S/CPU 
   14000    280.35377   -10466.096            0   -9631.2505   -6531.2352    788.51688    9.2385468    9.2385468    9.2385468            0 
   14100    295.55502   -10505.464            0   -9625.3513    -13715.35     788.8112    9.2396961    9.2396961    9.2396961    40.053086 
   14200    295.99863   -10497.891            0   -9616.4575    1380.7167    788.74388    9.2394333    9.2394333    9.2394333    37.125398 
   14300    297.72158   -10493.725            0   -9607.1606   -11264.036    788.13704    9.2370631    9.2370631    9.2370631    37.713397 
   14400    276.67491   -10420.253            0   -9596.3622   -12992.832    786.61949    9.2311307    9.2311307    9.2311307    40.894519 
   14500    298.89783   -10479.881            0   -9589.8147    -18413.95    784.27197    9.2219387    9.2219387    9.2219387    42.968271 
   14600    307.79384   -10499.616            0   -9583.0581    9071.6976    781.43516    9.2108063    9.2108063    9.2108063    34.291838 
   14700    304.84272   -10486.865            0   -9579.0955    4072.8038    779.21283    9.2020665    9.2020665    9.2020665    37.633984 
   14800     299.7003   -10468.775            0   -9576.3188    7739.7017     777.8267    9.1966067    9.1966067    9.1966067    44.838917 
   14900    296.78242    -10458.36            0   -9574.5922    9378.4607    777.33945     9.194686     9.194686     9.194686    44.586824 
   15000    315.82692   -10516.542            0   -9576.0631    12253.458    777.65388    9.1959256    9.1959256    9.1959256    42.972727 
Loop time of 24.9879 on 16 procs for 1000 steps with 1000 atoms

Performance: 3.458 ns/day, 6.941 hours/ns, 40.019 timesteps/s
94.2% CPU use with 16 MPI tasks x no OpenMP threads

MPI task timing breakdown:
Section |  min time  |  avg time  |  max time  |%varavg| %total
---------------------------------------------------------------
Pair    | 1.3278     | 1.3779     | 1.6971     |   7.3 |  5.51
Neigh   | 0.57409    | 0.59229    | 0.74088    |   5.1 |  2.37
Comm    | 0.26705    | 0.73364    | 0.79977    |  14.3 |  2.94
Output  | 15.404     | 15.837     | 22.25      |  41.6 | 63.38
Modify  | 0.022844   | 6.4391     | 6.873      |  65.3 | 25.77
Other   |            | 0.008141   |            |       |  0.03

Nlocal:    62.5 ave 70 max 57 min
Histogram: 1 2 2 3 2 2 3 0 0 1
Nghost:    1871.62 ave 1894 max 1853 min
Histogram: 2 0 0 6 3 2 1 0 0 2
Neighs:    0 ave 0 max 0 min
Histogram: 16 0 0 0 0 0 0 0 0 0
FullNghs:  18970.2 ave 21409 max 17273 min
Histogram: 1 2 3 2 3 1 3 0 0 1

Total # of neighbors = 303524
Ave neighs/atom = 303.524
Neighbor list builds = 1000
Dangerous builds not checked
Setting up Verlet run ...
  Unit style    : real
  Current step  : 15000
  Time step     : 1
Per MPI rank memory allocation (min/avg/max) = 4.577 | 4.579 | 4.58 Mbytes
Step Temp E_pair E_mol TotEng Press Volume Lx Ly Lz S/CPU 
   15000    315.82692   -10516.542            0   -9576.0631    12253.458    777.65388    9.1959256    9.1959256    9.1959256            0 
   15100    307.31377   -10492.853            0   -9577.7255    6690.7264     778.6225     9.199742     9.199742     9.199742     45.16423 
   15200    311.83049   -10509.296            0   -9580.7182    7815.5117    779.99802    9.2051563    9.2051563    9.2051563    46.985019 
   15300    299.79566   -10476.151            0   -9583.4109    14549.871     781.6001    9.2114543    9.2114543    9.2114543     45.77178 
   15400    306.11888    -10498.88            0   -9587.3103   -9002.2217    783.79205    9.2200573    9.2200573    9.2200573    43.975073 
   15500    307.08403   -10506.034            0   -9591.5906    3259.5082    786.20837    9.2295222    9.2295222    9.2295222      41.5722 
   15600     300.2791   -10491.161            0   -9596.9812   -8555.0948    788.70335     9.239275     9.239275     9.239275    38.183011 
   15700    297.90938   -10487.557            0   -9600.4337   -13547.172      790.834    9.2475874    9.2475874    9.2475874    40.602325 
   15800    296.20488   -10486.015            0   -9603.9673   -10683.339    792.19305    9.2528817    9.2528817    9.2528817    47.966815 
   15900    302.65764   -10509.178            0   -9607.9151   -8289.1007    792.69928    9.2548522    9.2548522    9.2548522       43.139 
   16000     300.9177    -10506.38            0   -9610.2985   -10559.723    792.72837    9.2549654    9.2549654    9.2549654    40.948066 
Loop time of 23.1336 on 16 procs for 1000 steps with 1000 atoms

Performance: 3.735 ns/day, 6.426 hours/ns, 43.227 timesteps/s
94.2% CPU use with 16 MPI tasks x no OpenMP threads

MPI task timing breakdown:
Section |  min time  |  avg time  |  max time  |%varavg| %total
---------------------------------------------------------------
Pair    | 1.2645     | 1.3704     | 1.6689     |   7.8 |  5.92
Neigh   | 0.56032    | 0.59189    | 0.73318    |   5.0 |  2.56
Comm    | 0.27065    | 0.70932    | 0.84916    |  15.1 |  3.07
Output  | 14.857     | 15.21      | 20.428     |  34.6 | 65.75
Modify  | 0.022893   | 5.2442     | 5.5983     |  58.9 | 22.67
Other   |            | 0.008096   |            |       |  0.03

Nlocal:    62.5 ave 68 max 57 min
Histogram: 2 2 1 0 5 0 0 2 2 2
Nghost:    1846.62 ave 1858 max 1833 min
Histogram: 2 0 1 0 2 3 5 1 1 1
Neighs:    0 ave 0 max 0 min
Histogram: 16 0 0 0 0 0 0 0 0 0
FullNghs:  18626.6 ave 20253 max 16894 min
Histogram: 1 3 1 0 4 1 0 2 2 2

Total # of neighbors = 298026
Ave neighs/atom = 298.026
Neighbor list builds = 1000
Dangerous builds not checked
Setting up Verlet run ...
  Unit style    : real
  Current step  : 16000
  Time step     : 1
Per MPI rank memory allocation (min/avg/max) = 4.577 | 4.579 | 4.58 Mbytes
Step Temp E_pair E_mol TotEng Press Volume Lx Ly Lz S/CPU 
   16000     300.9177    -10506.38            0   -9610.2985   -10559.723    792.72837    9.2549654    9.2549654    9.2549654            0 
   16100    294.73882   -10490.766            0    -9613.084    -2316.808    792.04843    9.2523186    9.2523186    9.2523186    43.140674 
   16200    293.69086   -10488.967            0   -9614.4056    7465.5936    790.77439     9.247355     9.247355     9.247355    52.332542 
   16300    291.26609    -10483.01            0   -9615.6697   -3292.1753    789.46247    9.2422383    9.2422383    9.2422383    43.724813 
   16400    296.74826   -10499.298            0   -9615.6323    4598.5333     787.7321    9.2354809    9.2354809    9.2354809    40.588727 
   16500    300.30522   -10508.593            0   -9614.3355    15990.682     786.0718    9.2289878    9.2289878    9.2289878    43.472392 
   16600    311.66055    -10540.91            0   -9612.8379   -10201.862     784.8546    9.2242218    9.2242218    9.2242218    46.133892 
   16700     304.1952   -10514.575            0   -9608.7335    9716.6207    783.79375    9.2200639    9.2200639    9.2200639    38.341092 
   16800    298.66024   -10491.695            0   -9602.3354     308.2966    782.95102    9.2167583    9.2167583    9.2167583    42.334985 
   16900    294.73882   -10470.495            0   -9592.8134   -3737.3996    782.25332    9.2140197    9.2140197    9.2140197    41.582128 
   17000    299.78675   -10472.901            0   -9580.1876    4312.6984    781.73652    9.2119902    9.2119902    9.2119902    49.456056 
Loop time of 22.8447 on 16 procs for 1000 steps with 1000 atoms

Performance: 3.782 ns/day, 6.346 hours/ns, 43.774 timesteps/s
94.2% CPU use with 16 MPI tasks x no OpenMP threads

MPI task timing breakdown:
Section |  min time  |  avg time  |  max time  |%varavg| %total
---------------------------------------------------------------
Pair    | 1.3067     | 1.3656     | 1.6601     |   7.3 |  5.98
Neigh   | 0.5661     | 0.59048    | 0.72876    |   4.8 |  2.58
Comm    | 0.25323    | 0.68479    | 0.76129    |  14.4 |  3.00
Output  | 13.178     | 13.62      | 20.17      |  45.8 | 59.62
Modify  | 0.022897   | 6.5759     | 7.019      |  66.0 | 28.79
Other   |            | 0.008074   |            |       |  0.04

Nlocal:    62.5 ave 69 max 55 min
Histogram: 1 0 2 1 2 5 1 1 1 2
Nghost:    1852.06 ave 1880 max 1824 min
Histogram: 3 0 2 0 2 2 2 2 2 1
Neighs:    0 ave 0 max 0 min
Histogram: 16 0 0 0 0 0 0 0 0 0
FullNghs:  18877.1 ave 20794 max 16345 min
Histogram: 1 0 0 3 2 4 1 2 1 2

Total # of neighbors = 302034
Ave neighs/atom = 302.034
Neighbor list builds = 1000
Dangerous builds not checked
Setting up Verlet run ...
  Unit style    : real
  Current step  : 17000
  Time step     : 1
Per MPI rank memory allocation (min/avg/max) = 4.577 | 4.579 | 4.58 Mbytes
Step Temp E_pair E_mol TotEng Press Volume Lx Ly Lz S/CPU 
   17000    299.78675   -10472.901            0   -9580.1876    4312.6984    781.73652    9.2119902    9.2119902    9.2119902            0 
   17100    315.63817   -10507.427            0   -9567.5104    7853.6439    781.57039    9.2113376    9.2113376    9.2113376    40.023875 
   17200    316.92515   -10499.295            0   -9555.5464   -9941.9133    781.60149    9.2114598    9.2114598    9.2114598    32.330723 
   17300    313.63663   -10480.541            0   -9546.5845   -9189.2032    781.31197    9.2103223    9.2103223    9.2103223     59.37108 
   17400    313.86336   -10475.315            0    -9540.683    830.83824    780.69645     9.207903     9.207903     9.207903    41.845366 
   17500    302.04224   -10434.366            0   -9534.9354    11616.783    780.09029    9.2055193    9.2055193    9.2055193    41.095249 
   17600    310.21753   -10456.957            0   -9533.1818    10188.986    779.96697    9.2050342    9.2050342    9.2050342    43.842426 
   17700    319.94749   -10486.572            0   -9533.8232    -13968.56    780.23231    9.2060779    9.2060779    9.2060779    46.097307 
   17800    297.13962   -10418.226            0   -9533.3952    2159.8506    780.48533    9.2070729    9.2070729    9.2070729    48.918067 
   17900     300.1737   -10430.516            0   -9536.6497    4880.4839    781.28168    9.2102033    9.2102033    9.2102033    44.623661 
   18000    306.62732   -10454.486            0   -9541.4025    9964.2842    782.58857    9.2153358    9.2153358    9.2153358    41.672847 
Loop time of 23.2341 on 16 procs for 1000 steps with 1000 atoms

Performance: 3.719 ns/day, 6.454 hours/ns, 43.040 timesteps/s
94.3% CPU use with 16 MPI tasks x no OpenMP threads

MPI task timing breakdown:
Section |  min time  |  avg time  |  max time  |%varavg| %total
---------------------------------------------------------------
Pair    | 1.3312     | 1.3893     | 1.6951     |   7.3 |  5.98
Neigh   | 0.56948    | 0.59216    | 0.7323     |   4.8 |  2.55
Comm    | 0.25247    | 0.69707    | 0.7756     |  14.4 |  3.00
Output  | 14.378     | 14.767     | 20.522     |  38.7 | 63.56
Modify  | 0.02253    | 5.7809     | 6.171      |  61.8 | 24.88
Other   |            | 0.00817    |            |       |  0.04

Nlocal:    62.5 ave 66 max 59 min
Histogram: 2 1 2 0 4 2 0 1 2 2
Nghost:    1860.75 ave 1871 max 1850 min
Histogram: 2 3 0 2 1 0 2 3 0 3
Neighs:    0 ave 0 max 0 min
Histogram: 16 0 0 0 0 0 0 0 0 0
FullNghs:  18838 ave 20035 max 17668 min
Histogram: 2 1 2 1 3 2 1 0 2 2

Total # of neighbors = 301408
Ave neighs/atom = 301.408
Neighbor list builds = 1000
Dangerous builds not checked
Setting up Verlet run ...
  Unit style    : real
  Current step  : 18000
  Time step     : 1
Per MPI rank memory allocation (min/avg/max) = 4.577 | 4.579 | 4.58 Mbytes
Step Temp E_pair E_mol TotEng Press Volume Lx Ly Lz S/CPU 
   18000    306.62732   -10454.486            0   -9541.4025    9964.2842    782.58857    9.2153358    9.2153358    9.2153358            0 
   18100    301.19078   -10444.436            0   -9547.5415   -2898.1632    784.34349     9.222219     9.222219     9.222219    34.740617 
   18200    310.04874   -10478.585            0   -9555.3129    1265.8308     786.3802    9.2301946    9.2301946    9.2301946    47.907618 
   18300    300.95116   -10460.812            0   -9564.6313   -2405.6288    788.56163    9.2387216    9.2387216    9.2387216    42.905117 
   18400    294.25434   -10451.323            0   -9575.0834   -17690.034    790.35851    9.2457336    9.2457336    9.2457336    42.701069 
   18500    295.21308   -10464.606            0   -9585.5118   -1240.7502     791.2099    9.2490524    9.2490524    9.2490524    44.811699 
   18600    302.72859   -10497.667            0   -9596.1927   -13233.323    791.33687    9.2495471    9.2495471    9.2495471    48.407622 
   18700    297.46441   -10489.502            0   -9603.7041   -9918.9999    790.71891    9.2471388    9.2471388    9.2471388    42.863618 
   18800    297.05232   -10494.487            0   -9609.9157   -7914.3462    789.10537    9.2408446    9.2408446    9.2408446    45.405175 
   18900     286.1789   -10466.643            0   -9614.4514    5384.4045    787.08625    9.2329562    9.2329562    9.2329562    40.131872 
   19000    296.49803   -10500.321            0   -9617.4004      6024.04    784.95348    9.2246091    9.2246091    9.2246091    41.501729 
Loop time of 23.3725 on 16 procs for 1000 steps with 1000 atoms

Performance: 3.697 ns/day, 6.492 hours/ns, 42.785 timesteps/s
94.2% CPU use with 16 MPI tasks x no OpenMP threads

MPI task timing breakdown:
Section |  min time  |  avg time  |  max time  |%varavg| %total
---------------------------------------------------------------
Pair    | 1.2876     | 1.3629     | 1.6563     |   7.2 |  5.83
Neigh   | 0.57108    | 0.5903     | 0.74026    |   5.1 |  2.53
Comm    | 0.24624    | 0.6885     | 0.78139    |  14.5 |  2.95
Output  | 14.572     | 14.959     | 20.697     |  38.3 | 64.00
Modify  | 0.022748   | 5.7633     | 6.1522     |  61.7 | 24.66
Other   |            | 0.008078   |            |       |  0.03

Nlocal:    62.5 ave 71 max 56 min
Histogram: 2 1 3 2 3 1 1 0 0 3
Nghost:    1850.62 ave 1867 max 1828 min
Histogram: 1 1 0 1 2 2 4 2 1 2
Neighs:    0 ave 0 max 0 min
Histogram: 16 0 0 0 0 0 0 0 0 0
FullNghs:  18806.4 ave 21492 max 16917 min
Histogram: 2 3 2 2 2 1 1 0 0 3

Total # of neighbors = 300902
Ave neighs/atom = 300.902
Neighbor list builds = 1000
Dangerous builds not checked
Setting up Verlet run ...
  Unit style    : real
  Current step  : 19000
  Time step     : 1
Per MPI rank memory allocation (min/avg/max) = 4.577 | 4.579 | 4.58 Mbytes
Step Temp E_pair E_mol TotEng Press Volume Lx Ly Lz S/CPU 
   19000    296.49803   -10500.321            0   -9617.4004      6024.04    784.95348    9.2246091    9.2246091    9.2246091            0 
   19100     294.9228   -10497.478            0   -9619.2482    17380.892    782.99568    9.2169335    9.2169335    9.2169335    50.155462 
   19200    296.39361   -10501.854            0   -9619.2441    10638.925      781.575    9.2113557    9.2113557    9.2113557    38.701611 
   19300    311.59769   -10546.993            0   -9619.1079     9917.026    780.68915    9.2078743    9.2078743    9.2078743    33.351467 
   19400    301.72528   -10516.388            0   -9617.9014    8561.1815    780.36291    9.2065915    9.2065915    9.2065915    44.076966 
   19500    295.77673   -10496.557            0   -9615.7844    8855.7149    780.69768    9.2079078    9.2079078    9.2079078    41.999914 
   19600    300.23675   -10507.105            0   -9613.0515    5665.6418    781.85792     9.212467     9.212467     9.212467    41.859715 
   19700    299.21204    -10501.45            0   -9610.4478    5995.8479    783.98138    9.2207996    9.2207996    9.2207996    41.357122 
   19800    294.71098   -10486.089            0   -9608.4898     28899.86    787.04014    9.2327759    9.2327759    9.2327759    40.046855 
   19900    292.29247   -10474.889            0   -9604.4919    2877.4841    791.32842    9.2495141    9.2495141    9.2495141    39.973333 
   20000    294.40077   -10477.208            0   -9600.5326   -12617.018    796.04421    9.2678514    9.2678514    9.2678514    45.343204 
Loop time of 24.2368 on 16 procs for 1000 steps with 1000 atoms

Performance: 3.565 ns/day, 6.732 hours/ns, 41.260 timesteps/s
94.2% CPU use with 16 MPI tasks x no OpenMP threads

MPI task timing breakdown:
Section |  min time  |  avg time  |  max time  |%varavg| %total
---------------------------------------------------------------
Pair    | 1.2986     | 1.3767     | 1.719      |   8.3 |  5.68
Neigh   | 0.56615    | 0.5917     | 0.75717    |   5.7 |  2.44
Comm    | 0.23724    | 0.74373    | 0.8452     |  16.2 |  3.07
Output  | 14.988     | 15.399     | 21.491     |  40.1 | 63.54
Modify  | 0.02263    | 6.1177     | 6.5303     |  63.6 | 25.24
Other   |            | 0.008106   |            |       |  0.03

Nlocal:    62.5 ave 69 max 57 min
Histogram: 2 2 2 0 3 2 1 1 0 3
Nghost:    1828.88 ave 1855 max 1809 min
Histogram: 3 2 2 3 1 0 1 1 1 2
Neighs:    0 ave 0 max 0 min
Histogram: 16 0 0 0 0 0 0 0 0 0
FullNghs:  18553.6 ave 20507 max 16708 min
Histogram: 2 0 4 0 3 2 1 1 0 3

Total # of neighbors = 296858
Ave neighs/atom = 296.858
Neighbor list builds = 1000
Dangerous builds not checked
Setting up Verlet run ...
  Unit style    : real
  Current step  : 20000
  Time step     : 1
Per MPI rank memory allocation (min/avg/max) = 4.577 | 4.579 | 4.58 Mbytes
Step Temp E_pair E_mol TotEng Press Volume Lx Ly Lz S/CPU 
   20000    294.40077   -10477.208            0   -9600.5326   -12617.018    796.04421    9.2678514    9.2678514    9.2678514            0 
   20100    296.76573   -10479.088            0     -9595.37   -7930.6187    800.12776    9.2836718    9.2836718    9.2836718    47.596437 
   20200    295.38606   -10467.815            0   -9588.2053   -25102.216    802.87541    9.2942864    9.2942864    9.2942864    38.964514 
   20300    296.82092   -10466.601            0   -9582.7194   -33004.587    803.53608    9.2968351    9.2968351    9.2968351    46.232686 
   20400    300.33385   -10472.496            0   -9578.1528   -26432.845    802.28961    9.2920254    9.2920254    9.2920254    41.865085 
   20500    310.80568   -10500.375            0   -9574.8492   -21894.377    799.29286    9.2804417    9.2804417    9.2804417    47.691755 
   20600    298.73247   -10462.168            0    -9572.594   -19031.849    794.83444    9.2631542    9.2631542    9.2631542    40.833296 
   20700    303.14189    -10474.58            0   -9571.8756   -5871.6446      789.268    9.2414794    9.2414794    9.2414794    53.885658 
   20800    305.75203   -10483.007            0   -9572.5298     19068.02    783.03228    9.2170771    9.2170771    9.2170771    45.476365 
   20900    302.74019   -10473.451            0   -9571.9426    25027.337    777.11467    9.1937997    9.1937997    9.1937997    44.030674 
   21000    316.45445   -10516.661            0   -9574.3141    8271.0129    772.42545    9.1752701    9.1752701    9.1752701    45.668642 
Loop time of 22.2804 on 16 procs for 1000 steps with 1000 atoms

Performance: 3.878 ns/day, 6.189 hours/ns, 44.883 timesteps/s
94.2% CPU use with 16 MPI tasks x no OpenMP threads

MPI task timing breakdown:
Section |  min time  |  avg time  |  max time  |%varavg| %total
---------------------------------------------------------------
Pair    | 1.2587     | 1.3409     | 1.6193     |   7.4 |  6.02
Neigh   | 0.5656     | 0.58754    | 0.73534    |   5.1 |  2.64
Comm    | 0.24227    | 0.6674     | 0.76926    |  14.8 |  3.00
Output  | 13.506     | 13.895     | 19.651     |  39.9 | 62.36
Modify  | 0.022756   | 5.7818     | 6.172      |  61.8 | 25.95
Other   |            | 0.008007   |            |       |  0.04

Nlocal:    62.5 ave 66 max 57 min
Histogram: 1 0 1 1 1 2 6 0 3 1
Nghost:    1874.5 ave 1890 max 1855 min
Histogram: 2 1 0 3 1 2 0 1 3 3
Neighs:    0 ave 0 max 0 min
Histogram: 16 0 0 0 0 0 0 0 0 0
FullNghs:  19111.5 ave 20253 max 17445 min
Histogram: 1 1 1 0 1 2 5 1 2 2

Total # of neighbors = 305784
Ave neighs/atom = 305.784
Neighbor list builds = 1000
Dangerous builds not checked
Setting up Verlet run ...
  Unit style    : real
  Current step  : 21000
  Time step     : 1
Per MPI rank memory allocation (min/avg/max) = 4.577 | 4.579 | 4.58 Mbytes
Step Temp E_pair E_mol TotEng Press Volume Lx Ly Lz S/CPU 
   21000    316.45445   -10516.661            0   -9574.3141    8271.0129    772.42545    9.1752701    9.1752701    9.1752701            0 
   21100    311.53328   -10505.127            0   -9577.4344    25434.874    768.97161    9.1615742    9.1615742    9.1615742    39.862965 
   21200    310.16869   -10505.883            0   -9582.2534    30992.183    767.08503    9.1540757    9.1540757    9.1540757    48.368297 
   21300    293.79646   -10464.427            0   -9589.5512    28167.188    767.04668    9.1539232    9.1539232    9.1539232     41.64633 
   21400    310.66444   -10523.514            0   -9598.4088    21753.608     768.5969    9.1600858    9.1600858    9.1600858    37.748003 
   21500    304.23836   -10512.971            0   -9607.0007    22145.056    771.51986     9.171683     9.171683     9.171683    43.637513 
   21600    299.36394   -10507.512            0   -9616.0572    9538.6112    775.69373    9.1881927    9.1881927    9.1881927    38.820505 
   21700    300.10698    -10516.87            0   -9623.2024   -12252.698    780.80112    9.2083145    9.2083145    9.2083145    32.400787 
   21800    288.19928   -10485.415            0   -9627.2069    -17869.19    785.43396    9.2264909    9.2264909    9.2264909    42.534793 
   21900    289.26561    -10492.24            0   -9630.8561   -16462.246    788.87143    9.2399313    9.2399313    9.2399313    32.951233 
   22000    296.96631   -10517.479            0   -9633.1636    3833.8276    791.29515    9.2493845    9.2493845    9.2493845    37.818258 
Loop time of 25.6104 on 16 procs for 1000 steps with 1000 atoms

Performance: 3.374 ns/day, 7.114 hours/ns, 39.047 timesteps/s
94.2% CPU use with 16 MPI tasks x no OpenMP threads

MPI task timing breakdown:
Section |  min time  |  avg time  |  max time  |%varavg| %total
---------------------------------------------------------------
Pair    | 1.3255     | 1.4086     | 1.7292     |   8.0 |  5.50
Neigh   | 0.57005    | 0.59445    | 0.74234    |   5.1 |  2.32
Comm    | 0.25747    | 0.72496    | 0.82999    |  15.4 |  2.83
Output  | 15.873     | 16.313     | 22.849     |  41.8 | 63.70
Modify  | 0.022769   | 6.5609     | 7.0027     |  65.9 | 25.62
Other   |            | 0.008177   |            |       |  0.03

Nlocal:    62.5 ave 66 max 57 min
Histogram: 1 0 1 1 2 2 4 2 0 3
Nghost:    1846.12 ave 1866 max 1829 min
Histogram: 1 2 2 4 1 2 1 0 1 2
Neighs:    0 ave 0 max 0 min
Histogram: 16 0 0 0 0 0 0 0 0 0
FullNghs:  18649.9 ave 19929 max 16722 min
Histogram: 1 0 1 1 2 1 5 2 0 3

Total # of neighbors = 298398
Ave neighs/atom = 298.398
Neighbor list builds = 1000
Dangerous builds not checked
Setting up Verlet run ...
  Unit style    : real
  Current step  : 22000
  Time step     : 1
Per MPI rank memory allocation (min/avg/max) = 4.578 | 4.579 | 4.58 Mbytes
Step Temp E_pair E_mol TotEng Press Volume Lx Ly Lz S/CPU 
   22000    296.96631   -10517.479            0   -9633.1636    3833.8276    791.29515    9.2493845    9.2493845    9.2493845            0 
   22100     292.9162   -10504.599            0   -9632.3441   -3392.8497    793.13147    9.2565339    9.2565339    9.2565339    48.669557 
   22200    305.75498   -10542.686            0   -9632.1999    -22925.63    794.08597    9.2602456    9.2602456    9.2602456    41.435057 
   22300    294.24214   -10504.645            0   -9628.4419   -25527.639    793.40402     9.257594     9.257594     9.257594    46.381856 
   22400    293.65889   -10500.083            0   -9625.6166    -9787.801    791.32266    9.2494917    9.2494917    9.2494917    46.296507 
   22500    303.71486   -10524.446            0   -9620.0352     -5783.63    788.69158    9.2392291    9.2392291    9.2392291    37.795186 
   22600    301.56218   -10509.047            0   -9611.0464   -5887.2647    785.83177    9.2280483    9.2280483    9.2280483    53.804571 
   22700    302.63508   -10501.728            0   -9600.5327    10461.886    782.86278     9.216412     9.216412     9.216412    35.300281 
   22800    311.69307   -10517.496            0   -9589.3273   -1523.6828    780.68156    9.2078444    9.2078444    9.2078444    42.115189 
   22900    308.67198   -10495.874            0   -9576.7016    8331.3184    779.47408    9.2030947    9.2030947    9.2030947    45.394609 
   23000    301.55325   -10462.079            0   -9564.1051    22138.422    778.96771    9.2011014    9.2011014    9.2011014    41.099118 
Loop time of 23.1319 on 16 procs for 1000 steps with 1000 atoms

Performance: 3.735 ns/day, 6.426 hours/ns, 43.230 timesteps/s
94.3% CPU use with 16 MPI tasks x no OpenMP threads

MPI task timing breakdown:
Section |  min time  |  avg time  |  max time  |%varavg| %total
---------------------------------------------------------------
Pair    | 1.2919     | 1.3759     | 1.7363     |   8.8 |  5.95
Neigh   | 0.56743    | 0.59531    | 0.75594    |   5.7 |  2.57
Comm    | 0.26019    | 0.78013    | 0.89421    |  16.5 |  3.37
Output  | 14.015     | 14.415     | 20.347     |  40.3 | 62.32
Modify  | 0.023075   | 5.9578     | 6.359      |  62.8 | 25.76
Other   |            | 0.008106   |            |       |  0.04

Nlocal:    62.5 ave 68 max 59 min
Histogram: 2 4 1 1 1 3 2 1 0 1
Nghost:    1863.25 ave 1873 max 1854 min
Histogram: 2 3 0 3 0 2 0 2 2 2
Neighs:    0 ave 0 max 0 min
Histogram: 16 0 0 0 0 0 0 0 0 0
FullNghs:  18967.2 ave 20649 max 17818 min
Histogram: 4 3 0 1 1 2 3 0 1 1

Total # of neighbors = 303476
Ave neighs/atom = 303.476
Neighbor list builds = 1000
Dangerous builds not checked
Setting up Verlet run ...
  Unit style    : real
  Current step  : 23000
  Time step     : 1
Per MPI rank memory allocation (min/avg/max) = 4.578 | 4.579 | 4.58 Mbytes
Step Temp E_pair E_mol TotEng Press Volume Lx Ly Lz S/CPU 
   23000    301.55325   -10462.079            0   -9564.1051    22138.422    778.96771    9.2011014    9.2011014    9.2011014            0 
   23100    311.64054   -10483.706            0   -9555.6932   -7168.7112     779.3582    9.2026387    9.2026387    9.2026387    45.185798 
   23200    306.39974   -10461.672            0   -9549.2658    7635.0353     779.9004    9.2047722    9.2047722    9.2047722    40.246319 
   23300    305.43806   -10456.573            0   -9547.0302     7415.463    780.82622    9.2084131    9.2084131    9.2084131    45.982192 
   23400    305.70569    -10456.23            0   -9545.8905    10454.506    782.33338    9.2143341    9.2143341    9.2143341    43.876504 
   23500    299.80221   -10438.952            0   -9546.1921    5493.9493    784.16085    9.2215031    9.2215031    9.2215031    38.123606 
   23600    303.57746   -10451.991            0   -9547.9894   -7015.3864    786.07751    9.2290101    9.2290101    9.2290101    49.258274 
   23700      299.318   -10441.291            0   -9549.9733   -5759.8442    787.48255    9.2345055    9.2345055    9.2345055     44.27968 
   23800    286.17268   -10403.318            0   -9551.1444    -130.1113    788.28061     9.237624     9.237624     9.237624    47.550794 
   23900     298.0377   -10439.602            0   -9552.0971   -4432.6299     788.7483    9.2394505    9.2394505    9.2394505    37.461131 
   24000    308.46302   -10473.116            0   -9554.5661   -3966.1196     789.1096    9.2408611    9.2408611    9.2408611    33.623591 
Loop time of 23.8098 on 16 procs for 1000 steps with 1000 atoms

Performance: 3.629 ns/day, 6.614 hours/ns, 42.000 timesteps/s
94.2% CPU use with 16 MPI tasks x no OpenMP threads

MPI task timing breakdown:
Section |  min time  |  avg time  |  max time  |%varavg| %total
---------------------------------------------------------------
Pair    | 1.3138     | 1.378      | 1.6736     |   6.8 |  5.79
Neigh   | 0.57124    | 0.59143    | 0.73856    |   5.1 |  2.48
Comm    | 0.26903    | 0.71081    | 0.79482    |  13.9 |  2.99
Output  | 15.264     | 15.634     | 21.096     |  35.7 | 65.66
Modify  | 0.02287    | 5.4876     | 5.8583     |  60.2 | 23.05
Other   |            | 0.008115   |            |       |  0.03

Nlocal:    62.5 ave 69 max 58 min
Histogram: 2 2 1 4 0 4 2 0 0 1
Nghost:    1853.12 ave 1869 max 1840 min
Histogram: 2 3 0 3 1 1 2 2 0 2
Neighs:    0 ave 0 max 0 min
Histogram: 16 0 0 0 0 0 0 0 0 0
FullNghs:  18708.9 ave 20739 max 17321 min
Histogram: 2 2 1 3 2 3 2 0 0 1

Total # of neighbors = 299342
Ave neighs/atom = 299.342
Neighbor list builds = 1000
Dangerous builds not checked
Setting up Verlet run ...
  Unit style    : real
  Current step  : 24000
  Time step     : 1
Per MPI rank memory allocation (min/avg/max) = 4.578 | 4.579 | 4.58 Mbytes
Step Temp E_pair E_mol TotEng Press Volume Lx Ly Lz S/CPU 
   24000    308.46302   -10473.116            0   -9554.5661   -3966.1196     789.1096    9.2408611    9.2408611    9.2408611            0 
   24100     305.8626   -10467.266            0    -9556.459    4144.9382    789.45896    9.2422246    9.2422246    9.2422246    44.891415 
   24200     301.1515   -10452.772            0   -9555.9944   -1744.5386    789.55825    9.2426121    9.2426121    9.2426121    44.663767 
   24300    299.16338   -10447.598            0   -9556.7406    11123.746     789.4658    9.2422513    9.2422513    9.2422513    46.430592 
   24400    302.40876   -10457.477            0   -9556.9554   -6805.4502    789.53449    9.2425194    9.2425194    9.2425194    30.351194 
   24500     291.0603   -10423.588            0   -9556.8602   -24416.163    789.25714     9.241437     9.241437     9.241437    51.799091 
   24600    302.49542   -10458.808            0   -9558.0283   -9587.5602    788.43614    9.2382315    9.2382315    9.2382315    44.327552 
   24700    302.84096   -10463.291            0   -9561.4819   -1318.1698    787.30652    9.2338174    9.2338174    9.2338174    40.919863 
   24800    297.58515   -10451.274            0   -9565.1161   -13819.586    786.21355    9.2295425    9.2295425    9.2295425    45.385848 
   24900    307.35277   -10487.214            0   -9571.9701   -5135.0475    784.99547    9.2247736    9.2247736    9.2247736      39.3795 
   25000    307.00078   -10494.315            0   -9580.1186    22252.556    783.49322    9.2188853    9.2188853    9.2188853     39.04256 
Loop time of 23.8494 on 16 procs for 1000 steps with 1000 atoms

Performance: 3.623 ns/day, 6.625 hours/ns, 41.930 timesteps/s
94.3% CPU use with 16 MPI tasks x no OpenMP threads

MPI task timing breakdown:
Section |  min time  |  avg time  |  max time  |%varavg| %total
---------------------------------------------------------------
Pair    | 1.2831     | 1.3613     | 1.6634     |   7.4 |  5.71
Neigh   | 0.56197    | 0.58971    | 0.72112    |   4.7 |  2.47
Comm    | 0.27679    | 0.70907    | 0.80473    |  14.3 |  2.97
Output  | 14.566     | 14.983     | 21.156     |  41.2 | 62.82
Modify  | 0.022407   | 6.1987     | 6.6166     |  64.1 | 25.99
Other   |            | 0.00811    |            |       |  0.03

Nlocal:    62.5 ave 68 max 58 min
Histogram: 1 2 2 2 2 1 1 2 1 2
Nghost:    1858.88 ave 1884 max 1840 min
Histogram: 4 2 0 3 1 1 0 2 1 2
Neighs:    0 ave 0 max 0 min
Histogram: 16 0 0 0 0 0 0 0 0 0
FullNghs:  18842 ave 20711 max 17361 min
Histogram: 2 2 1 4 1 0 2 2 1 1

Total # of neighbors = 301472
Ave neighs/atom = 301.472
Neighbor list builds = 1000
Dangerous builds not checked
Setting up Verlet run ...
  Unit style    : real
  Current step  : 25000
  Time step     : 1
Per MPI rank memory allocation (min/avg/max) = 4.578 | 4.579 | 4.58 Mbytes
Step Temp E_pair E_mol TotEng Press Volume Lx Ly Lz S/CPU 
   25000    307.00078   -10494.315            0   -9580.1186    22252.556    783.49322    9.2188853    9.2188853    9.2188853            0 
   25100    305.41521   -10498.294            0   -9588.8199    22937.547     782.5852    9.2153226    9.2153226    9.2153226    46.440293 
   25200    308.12849   -10515.899            0   -9598.3453    5523.4136    782.37744     9.214507     9.214507     9.214507     48.01487 
   25300    284.61651    -10453.75            0   -9606.2104    6549.8012    782.38245    9.2145267    9.2145267    9.2145267    39.492915 
   25400    299.51857   -10507.372            0   -9615.4564   -4218.3301    782.66745    9.2156454    9.2156454    9.2156454    47.108563 
   25500    292.01168   -10491.406            0   -9621.8452   -2235.7037    782.77632    9.2160727    9.2160727    9.2160727    46.880798 
   25600    293.73964   -10502.314            0   -9627.6076   -11050.737     782.7748    9.2160668    9.2160668    9.2160668    45.875688 
   25700    285.57437   -10481.451            0   -9631.0594    4188.6622    782.72656    9.2158774    9.2158774    9.2158774    43.195609 
   25800    300.40774   -10528.964            0   -9634.4011    6592.3017    782.99168    9.2169178    9.2169178    9.2169178    56.732043 
   25900    301.37782   -10534.027            0   -9636.5757   -1285.1729    783.73174    9.2198208    9.2198208    9.2198208    44.899756 
   26000    284.30511   -10480.944            0   -9634.3315     5055.083    784.11639    9.2213289    9.2213289    9.2213289    44.189606 
Loop time of 21.7716 on 16 procs for 1000 steps with 1000 atoms

Performance: 3.968 ns/day, 6.048 hours/ns, 45.931 timesteps/s
94.3% CPU use with 16 MPI tasks x no OpenMP threads

MPI task timing breakdown:
Section |  min time  |  avg time  |  max time  |%varavg| %total
---------------------------------------------------------------
Pair    | 1.3077     | 1.3777     | 1.6207     |   6.2 |  6.33
Neigh   | 0.57154    | 0.59138    | 0.71312    |   4.3 |  2.72
Comm    | 0.27522    | 0.63879    | 0.72104    |  12.7 |  2.93
Output  | 13.069     | 13.453     | 19.131     |  40.0 | 61.79
Modify  | 0.022392   | 5.7025     | 6.0874     |  61.4 | 26.19
Other   |            | 0.008102   |            |       |  0.04

Nlocal:    62.5 ave 67 max 59 min
Histogram: 2 1 4 0 0 3 3 2 0 1
Nghost:    1863.94 ave 1882 max 1844 min
Histogram: 1 1 2 2 1 1 4 1 1 2
Neighs:    0 ave 0 max 0 min
Histogram: 16 0 0 0 0 0 0 0 0 0
FullNghs:  18830.4 ave 20295 max 17658 min
Histogram: 2 1 4 0 1 2 3 2 0 1

Total # of neighbors = 301286
Ave neighs/atom = 301.286
Neighbor list builds = 1000
Dangerous builds not checked
Setting up Verlet run ...
  Unit style    : real
  Current step  : 26000
  Time step     : 1
Per MPI rank memory allocation (min/avg/max) = 4.578 | 4.579 | 4.58 Mbytes
Step Temp E_pair E_mol TotEng Press Volume Lx Ly Lz S/CPU 
   26000    284.30511   -10480.944            0   -9634.3315     5055.083    784.11639    9.2213289    9.2213289    9.2213289            0 
   26100    292.90128   -10505.744            0   -9633.5336   -4411.7379    784.08987    9.2212249    9.2212249    9.2212249    33.818606 
   26200    291.08078   -10495.948            0   -9629.1594    14782.706    783.62054    9.2193847    9.2193847    9.2193847    47.964743 
   26300    296.89262   -10509.778            0   -9625.6824    6184.4864    783.34301    9.2182962    9.2182962    9.2182962    36.560953 
   26400    295.33372   -10499.925            0   -9620.4714   -18786.499    783.57294     9.219198     9.219198     9.219198    35.510483 
   26500    296.66957   -10496.749            0   -9613.3173   -7747.7625    783.47006    9.2187945    9.2187945    9.2187945    36.731923 
   26600    305.32279    -10515.39            0   -9606.1907    9315.8446     782.9852    9.2168924    9.2168924    9.2168924    47.554547 
   26700    301.96628   -10498.072            0   -9598.8685    -835.2387    782.89907    9.2165544    9.2165544    9.2165544    43.256134 
   26800    300.65866   -10486.084            0    -9590.774    611.02015    783.09729    9.2173322    9.2173322    9.2173322    43.428553 
   26900    303.73061   -10487.055            0   -9582.5969   -1853.6682    783.57593    9.2192098    9.2192098    9.2192098    38.005854 
   27000    295.78803    -10454.87            0   -9574.0638    7572.5732     784.0095    9.2209098    9.2209098    9.2209098    41.780735 
Loop time of 25.0574 on 16 procs for 1000 steps with 1000 atoms

Performance: 3.448 ns/day, 6.960 hours/ns, 39.908 timesteps/s
94.2% CPU use with 16 MPI tasks x no OpenMP threads

MPI task timing breakdown:
Section |  min time  |  avg time  |  max time  |%varavg| %total
---------------------------------------------------------------
Pair    | 1.2645     | 1.3773     | 1.6488     |   6.9 |  5.50
Neigh   | 0.55972    | 0.59125    | 0.72786    |   4.8 |  2.36
Comm    | 0.26305    | 0.66989    | 0.81196    |  13.9 |  2.67
Output  | 15.696     | 16.118     | 22.386     |  40.3 | 64.33
Modify  | 0.022382   | 6.2924     | 6.7165     |  64.5 | 25.11
Other   |            | 0.00812    |            |       |  0.03

Nlocal:    62.5 ave 66 max 57 min
Histogram: 1 0 0 2 2 2 5 0 2 2
Nghost:    1856.69 ave 1880 max 1840 min
Histogram: 3 0 3 2 2 2 0 2 0 2
Neighs:    0 ave 0 max 0 min
Histogram: 16 0 0 0 0 0 0 0 0 0
FullNghs:  18816.6 ave 20081 max 17131 min
Histogram: 1 0 1 1 2 4 3 0 3 1

Total # of neighbors = 301066
Ave neighs/atom = 301.066
Neighbor list builds = 1000
Dangerous builds not checked
Setting up Verlet run ...
  Unit style    : real
  Current step  : 27000
  Time step     : 1
Per MPI rank memory allocation (min/avg/max) = 4.578 | 4.579 | 4.58 Mbytes
Step Temp E_pair E_mol TotEng Press Volume Lx Ly Lz S/CPU 
   27000    295.78803    -10454.87            0   -9574.0638    7572.5732     784.0095    9.2209098    9.2209098    9.2209098            0 
   27100    301.96001   -10465.596            0   -9566.4106    6396.2154    784.51083    9.2228748    9.2228748    9.2228748    39.421793 
   27200    314.62919   -10494.988            0   -9558.0758    8284.5198    785.26248    9.2258194    9.2258194    9.2258194    40.138981 
   27300    295.33398   -10426.637            0   -9547.1826   -6538.3894    786.23802    9.2296383    9.2296383    9.2296383    42.293384 
   27400    311.33624   -10460.197            0   -9533.0913    2817.7753    786.85364    9.2320465    9.2320465    9.2320465    45.202655 
   27500    305.64432   -10417.221            0   -9507.0647   -569.30728    787.06398    9.2328691    9.2328691    9.2328691    39.925573 
   27600     315.6602    -10418.88            0   -9478.8974    10944.431    786.73539    9.2315841    9.2315841    9.2315841    40.690003 
   27700    329.22385   -10443.878            0   -9463.5059    -6493.168    786.38573    9.2302162    9.2302162    9.2302162    49.482051 
   27800    316.46814   -10399.564            0   -9457.1761    20668.003    786.56139    9.2309034    9.2309034    9.2309034    45.426091 
   27900    315.56172   -10397.704            0   -9458.0155   -7965.4743    787.49212    9.2345429    9.2345429    9.2345429    59.613118 
   28000    327.01296   -10435.965            0   -9462.1758    3830.1016    788.25033    9.2375057    9.2375057    9.2375057    42.236322 
Loop time of 22.8344 on 16 procs for 1000 steps with 1000 atoms

Performance: 3.784 ns/day, 6.343 hours/ns, 43.794 timesteps/s
[...]
 1251700    299.61626   -11465.722            0   -10573.516   -17503.492    739.17022    9.0416596    9.0416596    9.0416596     42.95603 
 1251800    297.63239   -11462.411            0   -10576.113   -16249.414    740.04375    9.0452199    9.0452199    9.0452199    42.651618 
 1251900     307.8123   -11496.282            0    -10579.67   -24662.319    739.75759    9.0440539    9.0440539    9.0440539    49.113133 
 1252000    301.07252   -11481.491            0   -10584.948    -17914.74    738.42451     9.038618     9.038618     9.038618    41.778314 
 1252100    299.64183   -11485.971            0   -10593.689   -6774.9576    736.36864     9.030222     9.030222     9.030222    55.926476 
 1252200    304.73918   -11510.877            0   -10603.415    3804.0775    734.17052    9.0212277    9.0212277    9.0212277    42.788325 
 1252300     288.8713   -11474.628            0   -10614.419    14486.252    732.55953    9.0146245    9.0146245    9.0146245    40.903588 
 1252400    299.46731   -11520.864            0   -10629.102    28035.399    731.78319    9.0114389    9.0114389    9.0114389    40.735805 
 1252500    297.83677   -11526.805            0   -10639.898    17288.826    732.08325    9.0126704    9.0126704    9.0126704    43.202754 
 1252600    294.02349   -11523.954            0   -10648.402    15054.391    733.20894    9.0172875    9.0172875    9.0172875    47.020455 
 1252700    300.34003     -11549.3            0   -10654.939   -10647.506    734.96544    9.0244825    9.0244825    9.0244825    36.496707 
 1252800    295.91349   -11539.107            0   -10657.928    4329.7284    736.96265    9.0326495    9.0326495    9.0326495    55.801781 
 1252900    293.08829    -11529.23            0   -10656.463   -17760.424     738.6101    9.0393752    9.0393752    9.0393752    40.151665 
 1253000    289.16065   -11514.206            0   -10653.135   -16778.804    739.31066    9.0422322    9.0422322    9.0422322    42.446518 
 1253100    284.13411    -11494.78            0   -10648.677   -15846.882     738.8434    9.0403269    9.0403269    9.0403269     46.14071 
 1253200    282.81346   -11483.956            0   -10641.786   -3299.7699    737.34886    9.0342271    9.0342271    9.0342271    38.016042 
 1253300    288.55207   -11494.431            0   -10635.172   -4239.3017    735.44475    9.0264438    9.0264438    9.0264438    43.150972 
 1253400    291.93807   -11497.065            0   -10627.723    7365.3458    733.48526    9.0184201    9.0184201    9.0184201    40.992026 
 1253500    309.31299   -11542.278            0   -10621.197    17889.935    732.06497    9.0125954    9.0125954    9.0125954    44.465753 
 1253600    295.36278   -11493.508            0   -10613.968    15953.619     731.7212    9.0111845    9.0111845    9.0111845    45.241363 
 1253700    299.53139   -11502.049            0   -10610.096     21347.58    732.59987      9.01479      9.01479      9.01479    36.745058 
 1253800    309.59396   -11528.832            0   -10606.914   -1612.1944    734.36937    9.0220421    9.0220421    9.0220421      46.8276 
 1253900    289.77651   -11465.513            0   -10602.608     2843.472    736.60829    9.0312016    9.0312016    9.0312016    45.795532 
 1254000     299.9946   -11494.125            0   -10600.793   -14424.315    738.79719    9.0401384    9.0401384    9.0401384     46.31113 
 1254100    298.83867   -11487.166            0   -10597.276   -24573.608    740.37577    9.0465724    9.0465724    9.0465724    42.592089 
 1254200    285.24015   -11442.082            0   -10592.686   -21601.008     740.8718    9.0485923    9.0485923    9.0485923    44.581017 
 1254300    302.40984   -11490.972            0   -10590.447   -10827.887     740.1163    9.0455155    9.0455155    9.0455155    47.074955 
 1254400    291.59269   -11455.146            0   -10586.833   -6073.6649    738.38071    9.0384393    9.0384393    9.0384393    37.355941 
 1254500    300.51828   -11479.352            0   -10584.459    1547.6088    736.19243    9.0295017    9.0295017    9.0295017    43.278034 
 1254600    296.53313    -11463.17            0   -10580.145    2226.4166    734.18876    9.0213025    9.0213025    9.0213025    48.440768 
 1254700    303.95928    -11482.23            0   -10577.091    12342.137    732.73578    9.0153474    9.0153474    9.0153474    42.020132 
 1254800    303.48982   -11477.501            0    -10573.76    18540.709    732.27199    9.0134449    9.0134449    9.0134449    44.907844 
 1254900    302.15151   -11472.899            0   -10573.143    23371.846    732.91469    9.0160811    9.0160811    9.0160811    52.712999 
 1255000    303.30465     -11476.2            0    -10573.01    13301.683    734.73114    9.0235234    9.0235234    9.0235234    34.309471 
 1255100    305.33214   -11481.956            0   -10572.729   -622.85327    737.26741    9.0338945    9.0338945    9.0338945    46.038092 
 1255200    294.54188   -11450.455            0   -10573.359   -7688.6628    739.73693    9.0439697    9.0439697    9.0439697    47.116221 
 1255300    292.98715   -11446.102            0   -10573.637   -27435.936    741.42033    9.0508249    9.0508249    9.0508249    59.759943 
 1255400    304.56865    -11482.05            0   -10575.097   -22750.448    741.78845    9.0523226    9.0523226    9.0523226    42.533263 
 1255500    300.90991   -11474.031            0   -10577.973    -14668.11    740.58926    9.0474419    9.0474419    9.0474419    41.857197 
 1255600    299.94547   -11474.319            0   -10581.132   -13866.526    738.23978    9.0378643    9.0378643    9.0378643    40.854337 
 1255700    303.47526   -11490.611            0   -10586.913    9506.9434    735.30443    9.0258697    9.0258697    9.0258697    41.965296 
 1255800    302.98438    -11496.31            0   -10594.074    14052.348    732.66058     9.015039     9.015039     9.015039    43.989449 
 1255900    300.60612   -11496.769            0   -10601.615    22670.806    731.10969    9.0086735    9.0086735    9.0086735    40.356764 
 1256000    299.60481   -11502.214            0   -10610.042    18065.648     730.8729    9.0077008    9.0077008    9.0077008    47.584168 
 1256100    298.02909   -11507.087            0   -10619.607    22859.765    731.91205    9.0119678    9.0119678    9.0119678    40.916222 
 1256200     306.0393   -11541.696            0   -10630.363    4178.3646    733.98954    9.0204864    9.0204864    9.0204864     46.72275 
 1256300    287.72556   -11495.031            0   -10638.234   -7086.3295    736.37239    9.0302373    9.0302373    9.0302373    41.495355 
 1256400    286.54498   -11498.278            0   -10644.996   -19110.026    738.49873    9.0389209    9.0389209    9.0389209    44.461668 
 1256500    303.79583   -11554.581            0   -10649.929   -20544.589    739.65105    9.0436197    9.0436197    9.0436197     43.19526 
 1256600    285.60786   -11501.909            0   -10651.418   -17866.463    739.53622    9.0431517    9.0431517    9.0431517    44.123767 
 1256700    289.45793   -11515.014            0   -10653.058   -8120.3685    738.20524    9.0377233    9.0377233    9.0377233    42.890458 
 1256800    304.06895   -11558.802            0   -10653.337     -8028.59    736.13959    9.0292856    9.0292856    9.0292856    54.096201 
 1256900    295.17702   -11528.605            0   -10649.618    7844.3139    733.94372    9.0202987    9.0202987    9.0202987    53.247048 
 1257000    299.26903   -11535.002            0    -10643.83    10682.114    732.17259     9.013037     9.013037     9.013037    45.154813 
 1257100    296.73006   -11521.798            0   -10638.186    13396.239    731.27708     9.009361     9.009361     9.009361     44.46658 
 1257200    300.60166   -11525.331            0    -10630.19    20808.622    731.50485    9.0102962    9.0102962    9.0102962    43.177745 
 1257300    302.31716   -11520.865            0   -10620.616     4443.082    732.75196    9.0154138    9.0154138    9.0154138    55.274796 
 1257400    297.60487   -11494.768            0   -10608.551    3642.2407    734.65852    9.0232261    9.0232261    9.0232261    43.003578 
 1257500    304.34573   -11504.867            0   -10598.577    2220.8705    736.64313    9.0313439    9.0313439    9.0313439    42.782036 
 1257600    304.20256   -11493.314            0    -10587.45    -8347.881    738.18923     9.037658     9.037658     9.037658    39.276962 
 1257700    303.78114   -11483.142            0   -10578.533   -13734.324    739.18007    9.0416998    9.0416998    9.0416998    39.676089 
 1257800    292.25089   -11440.742            0   -10570.469   -13246.107    739.59159    9.0433774    9.0433774    9.0433774    46.612377 
 1257900    304.97704   -11475.544            0   -10567.375   -11001.658     739.2359    9.0419274    9.0419274    9.0419274    63.958812 
 1258000    303.05714   -11466.668            0   -10564.215   -6001.1616    738.14877    9.0374929    9.0374929    9.0374929    45.057087 
 1258100    302.21138   -11464.028            0   -10564.094    6589.6785    736.76384    9.0318372    9.0318372    9.0318372    46.015971 
 1258200    302.16238   -11463.186            0   -10563.398    8461.2554    735.68247    9.0274163    9.0274163    9.0274163     47.56168 
 1258300    295.47043   -11443.941            0    -10564.08    9927.5131    735.13693    9.0251843    9.0251843    9.0251843    41.758928 
 1258400    299.87246   -11460.126            0   -10567.157    6282.5708    735.16756    9.0253097    9.0253097    9.0253097     45.67621 
 1258500    293.85243     -11444.6            0   -10569.557    9768.6304     735.5852    9.0270184    9.0270184    9.0270184     49.42328 
 1258600    306.20778   -11485.186            0   -10573.351    3273.5552    736.33002    9.0300642    9.0300642    9.0300642    43.483472 
 1258700    307.17523   -11492.851            0   -10578.136   -7914.6233    737.16158    9.0334622    9.0334622    9.0334622    41.550566 
 1258800    305.79974   -11490.597            0   -10579.978   -10497.102    737.75038    9.0358667    9.0358667    9.0358667    50.544488 
 1258900     306.2757   -11495.266            0   -10583.229   -7742.3041    738.17509    9.0376003    9.0376003    9.0376003    47.446366 
 1259000     300.4204   -11478.507            0   -10583.907    1163.9395    738.23038    9.0378259    9.0378259    9.0378259    63.939404 
 1259100    300.94395   -11482.675            0   -10586.515   -7752.8281    737.96252    9.0367327    9.0367327    9.0367327    41.319441 
 1259200    300.15353   -11482.589            0   -10588.783    254.33712    737.41194    9.0344847    9.0344847    9.0344847    50.516857 
 1259300    307.53398   -11507.658            0   -10591.874   -1973.1009    736.82075    9.0320698    9.0320698    9.0320698    47.173194 
 1259400    296.33166   -11474.893            0   -10592.468     2208.943    736.40529    9.0303718    9.0303718    9.0303718    57.028628 
 1259500    293.30196   -11467.202            0   -10593.798    6880.8047    736.11167    9.0291715    9.0291715    9.0291715    39.266313 
 1259600    300.17064   -11489.661            0   -10595.804   -266.33764    735.86141    9.0281481    9.0281481    9.0281481    36.887805 
 1259700    308.03999   -11516.767            0   -10599.476    11225.701    735.76896      9.02777      9.02777      9.02777    66.520056 
 1259800    302.47199   -11502.747            0   -10602.037   -629.08231    735.83982    9.0280598    9.0280598    9.0280598    36.607785 
 1259900     307.2291   -11525.223            0   -10610.347   -7637.3895    735.92229    9.0283971    9.0283971    9.0283971    40.086868 
 1260000    296.44437   -11504.946            0   -10622.185   -6780.5545    735.92143    9.0283936    9.0283936    9.0283936    38.698368 
 1260100    294.28856   -11511.471            0    -10635.13    1229.1363    735.79658     9.027883     9.027883     9.027883    46.006504 
 1260200    294.69985   -11527.287            0   -10649.721    1161.2108    735.58026    9.0269982    9.0269982    9.0269982    40.225028 
 1260300    296.25809   -11544.052            0   -10661.846     7783.974     735.3744     9.026156     9.026156     9.026156    37.210292 
 1260400    280.83268     -11505.2            0   -10668.928   -1610.7281    735.17667     9.025347     9.025347     9.025347    58.005767 
 1260500    294.70719   -11553.704            0   -10676.116    11256.074     734.9114    9.0242613    9.0242613    9.0242613    36.693507 
 1260600    291.02023   -11545.936            0   -10679.327    7670.1639    734.73328    9.0235322    9.0235322    9.0235322    49.912775 
 1260700    284.99217   -11526.328            0    -10677.67   -3970.3561     734.7224    9.0234876    9.0234876    9.0234876    40.982781 
 1260800    290.70476   -11541.212            0   -10675.543    3044.9146    734.73064    9.0235213    9.0235213    9.0235213    45.430142 
 1260900    290.24798   -11535.912            0   -10671.603    1730.4723    734.88652    9.0241594    9.0241594    9.0241594    55.003444 
 1261000    286.17995   -11515.776            0   -10663.581   -2867.9796    735.02584    9.0247297    9.0247297    9.0247297    49.737523 
 1261100    297.42173   -11540.854            0   -10655.183   -1737.3099    735.23456    9.0255838    9.0255838    9.0255838    43.481551 
 1261200    296.79159   -11528.704            0    -10644.91   -2441.3742    735.58882    9.0270332    9.0270332    9.0270332    40.225354 
 1261300    298.15848   -11521.813            0   -10633.948   -1246.8237    736.00746    9.0287454    9.0287454    9.0287454    43.394684 
 1261400    299.06078    -11513.62            0   -10623.068   -4964.9156    736.33321    9.0300772    9.0300772    9.0300772    45.611894 
 1261500    299.66734   -11506.622            0   -10614.263   -1468.6629    736.59258    9.0311374    9.0311374    9.0311374    45.056209 
 1261600    293.42834   -11481.551            0   -10607.771    1458.7305    736.68069    9.0314974    9.0314974    9.0314974    41.978015 
 1261700    305.13988   -11511.545            0    -10602.89   -1950.3762    736.64473    9.0313505    9.0313505    9.0313505    59.790309 
 1261800    302.63461   -11499.494            0     -10598.3   -2967.2959    736.68392    9.0315106    9.0315106    9.0315106    46.085995 
 1261900    303.28897   -11496.825            0   -10593.682   -47.200431    736.71305    9.0316296    9.0316296    9.0316296    39.026082 
 1262000    298.12411   -11477.898            0   -10590.135     -7371.64    736.74305    9.0317522    9.0317522    9.0317522     46.34024 
 1262100    312.45275   -11519.868            0   -10589.437    3113.6823    736.56104    9.0310084    9.0310084    9.0310084    40.981616 
 1262200    295.10511   -11464.267            0   -10585.495    5455.4243    736.24162    9.0297028    9.0297028    9.0297028    45.468988 
 1262300    294.19557   -11460.023            0   -10583.959     6674.334    735.93338    9.0284424    9.0284424    9.0284424     49.29679 
 1262400    289.39056   -11443.478            0   -10581.722    4562.8583    735.82171    9.0279858    9.0279858    9.0279858    47.990402 
 1262500    306.92417     -11494.8            0   -10580.833    12997.648     736.0121    9.0287643    9.0287643    9.0287643    43.467848 
 1262600    297.16734   -11464.707            0   -10579.794   -4469.1175    736.65381    9.0313876    9.0313876    9.0313876    42.517519 
 1262700    298.47753    -11467.47            0   -10578.655   -6108.6035    737.34074    9.0341939    9.0341939    9.0341939    36.780491 
 1262800    303.71762   -11482.908            0   -10578.489   -9459.8888    737.88567     9.036419     9.036419     9.036419    44.910907 
 1262900    306.26517   -11491.214            0   -10579.208    -15756.35    738.08612    9.0372372    9.0372372    9.0372372    41.429336 
 1263000    300.82158   -11474.535            0    -10578.74   -4547.8899     737.9634    9.0367363    9.0367363    9.0367363    43.860553 
 1263100    293.34936   -11451.941            0   -10578.397    2299.2464    737.61897    9.0353301    9.0353301    9.0353301    47.648495 
 1263200    309.30669   -11501.013            0   -10579.951   -2230.5215      737.196    9.0336028    9.0336028    9.0336028    41.542039 
 1263300    301.94745   -11479.399            0   -10580.251    9447.7454    736.72261    9.0316687    9.0316687    9.0316687    44.668914 
 1263400    310.39695   -11505.417            0   -10581.108    3488.3267    736.29168    9.0299074    9.0299074    9.0299074    42.259937 
 1263500    302.82345   -11483.652            0   -10581.895    5190.7464    735.96283    9.0285629    9.0285629    9.0285629    45.367694 
 1263600    308.29982   -11502.146            0   -10584.082    9780.4368    735.93619     9.028454     9.028454     9.028454    54.585925 
 1263700    298.76512   -11474.326            0   -10584.655    4134.2251     736.3357    9.0300874    9.0300874    9.0300874    41.265093 
 1263800    293.95437   -11462.915            0    -10587.57    2137.4063    737.04677    9.0329932    9.0329932    9.0329932    42.404012 
 1263900    294.84479   -11468.754            0   -10590.757    1341.6095     737.9143    9.0365359    9.0365359    9.0365359    46.789817 
 1264000    309.03138   -11514.483            0   -10594.241   -13502.409    738.63834    9.0394904    9.0394904    9.0394904    48.755622 
 1264100    303.01302   -11498.157            0   -10595.836   -5325.2634    738.64332    9.0395107    9.0395107    9.0395107    43.537656 
 1264200    305.50255   -11508.428            0   -10598.694   -3194.7087    737.85603     9.036298     9.036298     9.036298    45.637445 
 1264300    300.88488   -11496.934            0    -10600.95   -5584.8715    736.57842    9.0310795    9.0310795    9.0310795    54.056112 
 1264400     304.3784   -11510.285            0   -10603.898    5313.4681    735.06082    9.0248728    9.0248728    9.0248728    45.002911 
 1264500     294.0402   -11480.749            0   -10605.147    12952.424      733.815    9.0197714    9.0197714    9.0197714    44.218212 
 1264600    297.22837   -11493.531            0   -10608.436    10833.035    733.29888    9.0176562    9.0176562    9.0176562     46.18135 
 1264700    312.31817   -11542.411            0    -10612.38     13172.69    733.72222    9.0193912    9.0193912    9.0193912    47.834832 
 1264800    294.77178   -11492.067            0   -10614.287    6673.8434    735.06983    9.0249097    9.0249097    9.0249097    46.032135 
 1264900    299.54001   -11510.383            0   -10618.404   -9734.0208    736.91621    9.0324598    9.0324598    9.0324598    58.225947 
 1265000     292.5443   -11492.683            0   -10621.536   -8162.7086    738.63297    9.0394685    9.0394685    9.0394685    38.813921 
Loop time of 2263.51 on 16 procs for 100000 steps with 1000 atoms

Performance: 3.817 ns/day, 6.288 hours/ns, 44.179 timesteps/s
94.2% CPU use with 16 MPI tasks x no OpenMP threads

MPI task timing breakdown:
Section |  min time  |  avg time  |  max time  |%varavg| %total
---------------------------------------------------------------
Pair    | 129.36     | 135.65     | 164.97     |  69.3 |  5.99
Neigh   | 57.711     | 61.085     | 74.05      |  45.5 |  2.70
Comm    | 25.67      | 67.842     | 77.423     | 140.0 |  3.00
Output  | 1391.5     | 1429.7     | 1995.6     | 386.4 | 63.16
Modify  | 2.2543     | 568.4      | 606.72     | 613.1 | 25.11
Other   |            | 0.833      |            |       |  0.04

Nlocal:    62.5 ave 68 max 53 min
Histogram: 1 0 0 1 3 0 4 4 0 3
Nghost:    1934.38 ave 1949 max 1920 min
Histogram: 1 0 2 6 1 1 1 1 0 3
Neighs:    0 ave 0 max 0 min
Histogram: 16 0 0 0 0 0 0 0 0 0
FullNghs:  19916.5 ave 21840 max 16695 min
Histogram: 1 0 0 2 1 2 4 3 0 3

Total # of neighbors = 318664
Ave neighs/atom = 318.664
Neighbor list builds = 100000
Dangerous builds not checked
Total wall time: 8:01:02
