LAMMPS (16 Mar 2018)
Reading data file ...
  orthogonal box = (-4.73276 -4.73276 -4.73276) to (4.73276 4.73276 4.73276)
  2 by 2 by 4 MPI processor grid
  reading atoms ...
  1000 atoms
Reading potential file /home/fs01/ajm529/lammps-16Mar18/potentials/sw_potentials/AG/eps2.23.sw with DATE: 2008-01-29
Neighbor list info ...
  update every 1 steps, delay 0 steps, check no
  max neighbors/atom: 2000, page size: 100000
  master list distance cutoff = 3.836
  ghost atom cutoff = 3.836
  binsize = 1.918, bins = 5 5 5
  1 neighbor lists, perpetual/occasional/extra = 1 0 0
  (1) pair sw, perpetual
      attributes: full, newton on
      pair build: full/bin/atomonly
      stencil: full/bin/3d
      bin: standard
Setting up Verlet run ...
  Unit style    : real
  Current step  : 0
  Time step     : 1
Per MPI rank memory allocation (min/avg/max) = 3.518 | 3.519 | 3.52 Mbytes
Step Temp E_pair E_mol TotEng Press Volume Lx Ly Lz S/CPU 
       0          300   -10045.714            0   -9152.3651   -36670.874    848.07144    9.4655128    9.4655128    9.4655128            0 
     100    331.96863   -10147.491            0   -9158.9454   -37277.903    846.25461    9.4587486    9.4587486    9.4587486    65.209745 
     200    341.15769    -10191.27            0   -9175.3609   -32043.157    840.86392    9.4386215    9.4386215    9.4386215    73.910845 
     300    344.10864   -10224.197            0   -9199.4999   -23920.899    832.54255    9.4073827    9.4073827    9.4073827    75.393995 
     400    351.83647   -10272.489            0   -9224.7799   -9498.8015    822.64143    9.3699411    9.3699411    9.3699411    61.345079 
     500    333.27239   -10236.827            0   -9244.3983    -15366.77    812.74228    9.3322053    9.3322053    9.3322053    74.311513 
     600    337.34188   -10266.801            0   -9262.2545    6849.5553    803.84485    9.2980257    9.2980257    9.2980257    85.673298 
     700    329.39376   -10261.792            0   -9280.9133    20501.245    796.93269    9.2712982    9.2712982    9.2712982    62.731608 
     800      322.227   -10260.466            0   -9300.9292    18373.763    792.21917    9.2529834    9.2529834    9.2529834    72.733581 
     900    319.45137   -10274.225            0   -9322.9537    21015.358    789.49767    9.2423757    9.2423757    9.2423757    60.932605 
    1000    334.48778   -10343.438            0    -9347.391     20662.77    788.67567     9.239167     9.239167     9.239167     80.47014 
Loop time of 14.2087 on 16 procs for 1000 steps with 1000 atoms

Performance: 6.081 ns/day, 3.947 hours/ns, 70.379 timesteps/s
94.7% CPU use with 16 MPI tasks x no OpenMP threads

MPI task timing breakdown:
Section |  min time  |  avg time  |  max time  |%varavg| %total
---------------------------------------------------------------
Pair    | 1.7557     | 1.8826     | 1.9507     |   3.9 | 13.25
Neigh   | 0.74635    | 0.77923    | 0.80883    |   2.0 |  5.48
Comm    | 0.73993    | 0.82066    | 0.98127    |   7.3 |  5.78
Output  | 7.3446     | 7.5551     | 10.655     |  29.1 | 53.17
Modify  | 0.061366   | 3.162      | 3.3726     |  45.0 | 22.25
Other   |            | 0.009082   |            |       |  0.06

Nlocal:    62.5 ave 67 max 59 min
Histogram: 1 3 4 0 0 1 4 1 1 1
Nghost:    1844.81 ave 1864 max 1821 min
Histogram: 1 1 0 1 3 2 4 2 1 1
Neighs:    0 ave 0 max 0 min
Histogram: 16 0 0 0 0 0 0 0 0 0
FullNghs:  18720.9 ave 20168 max 17543 min
Histogram: 1 3 3 1 1 0 4 1 1 1

Total # of neighbors = 299534
Ave neighs/atom = 299.534
Neighbor list builds = 1000
Dangerous builds not checked
Setting up Verlet run ...
  Unit style    : real
  Current step  : 1000
  Time step     : 1
Per MPI rank memory allocation (min/avg/max) = 3.768 | 4.426 | 4.579 Mbytes
Step Temp E_pair E_mol TotEng Press Volume Lx Ly Lz S/CPU 
    1000    334.48778   -10343.438            0    -9347.391     20662.77    788.67567     9.239167     9.239167     9.239167            0 
    1100    336.47461   -10374.969            0   -9373.0053    17940.344    789.36611    9.2418623    9.2418623    9.2418623    71.737601 
    1200    325.91686   -10366.754            0   -9396.2295    5039.7398    790.94352    9.2480143    9.2480143    9.2480143    65.531268 
    1300    323.92031   -10382.788            0   -9418.2084    9295.9441    792.47449    9.2539773    9.2539773    9.2539773    74.861125 
    1400    314.35497   -10376.106            0   -9440.0107    800.66444    793.92671    9.2596266    9.2596266    9.2596266    62.518175 
    1500    314.78208   -10399.322            0   -9461.9551   -1664.4585    795.27221    9.2648545    9.2648545    9.2648545    76.443088 
    1600    311.98107   -10410.398            0   -9481.3717    3591.3491    796.64135    9.2701682    9.2701682    9.2701682    83.550005 
    1700    310.85445    -10423.85            0   -9498.1786   -8034.4553    797.84308    9.2748272    9.2748272    9.2748272    68.142747 
    1800    307.39787   -10430.074            0   -9514.6956   -11965.756     798.1012    9.2758273    9.2758273    9.2758273     58.00061 
    1900    308.00296   -10447.579            0   -9530.3985   -8134.9323    797.64357    9.2740541    9.2740541    9.2740541    87.024354 
    2000     299.3687   -10434.729            0   -9543.2598   -16506.474    796.50593    9.2696429    9.2696429    9.2696429    92.357257 
Loop time of 13.7839 on 16 procs for 1000 steps with 1000 atoms

Performance: 6.268 ns/day, 3.829 hours/ns, 72.549 timesteps/s
94.9% CPU use with 16 MPI tasks x no OpenMP threads

MPI task timing breakdown:
Section |  min time  |  avg time  |  max time  |%varavg| %total
---------------------------------------------------------------
Pair    | 1.7415     | 1.9192     | 2.0107     |   5.7 | 13.92
Neigh   | 0.71828    | 0.77004    | 0.80193    |   3.0 |  5.59
Comm    | 0.73969    | 0.86046    | 1.0905     |  11.3 |  6.24
Output  | 6.7171     | 6.9365     | 10.172     |  31.7 | 50.32
Modify  | 0.051736   | 3.2886     | 3.5077     |  46.1 | 23.86
Other   |            | 0.009045   |            |       |  0.07

Nlocal:    62.5 ave 71 max 55 min
Histogram: 1 0 0 4 4 4 2 0 0 1
Nghost:    1832.25 ave 1851 max 1807 min
Histogram: 1 2 1 1 1 2 1 3 2 2
Neighs:    0 ave 0 max 0 min
Histogram: 16 0 0 0 0 0 0 0 0 0
FullNghs:  18532.4 ave 21232 max 16300 min
Histogram: 1 0 1 3 6 3 1 0 0 1

Total # of neighbors = 296518
Ave neighs/atom = 296.518
Neighbor list builds = 1000
Dangerous builds not checked
Setting up Verlet run ...
  Unit style    : real
  Current step  : 2000
  Time step     : 1
Per MPI rank memory allocation (min/avg/max) = 3.77 | 4.528 | 4.579 Mbytes
Step Temp E_pair E_mol TotEng Press Volume Lx Ly Lz S/CPU 
    2000     299.3687   -10434.729            0   -9543.2598   -16506.474    796.50593    9.2696429    9.2696429    9.2696429            0 
    2100    296.42745   -10438.525            0    -9555.815   -347.29829    794.87339    9.2633055    9.2633055    9.2633055    74.760268 
    2200    307.20025   -10483.685            0   -9568.8955   -3341.0155    792.87482    9.2555353    9.2555353    9.2555353    70.144449 
    2300    315.92004   -10520.581            0   -9579.8253    10468.341    790.75306    9.2472719    9.2472719    9.2472719    78.754183 
    2400    292.51142   -10460.003            0   -9588.9537   -1916.7063     789.2843     9.241543     9.241543     9.241543    83.958197 
    2500    298.52636   -10487.837            0   -9598.8765    -11211.74    787.89445    9.2361153    9.2361153    9.2361153    59.300068 
    2600    304.98382   -10516.444            0    -9608.254   -11634.046    786.17784    9.2294028    9.2294028    9.2294028    80.308795 
    2700    297.61302   -10502.926            0   -9616.6849   -9150.6991     784.2064    9.2216817    9.2216817    9.2216817    85.301285 
    2800     304.1769   -10530.692            0   -9624.9055   -1562.7998    782.18495    9.2137513    9.2137513    9.2137513    78.205752 
    2900    296.54394   -10516.211            0   -9633.1537    5375.1535    780.61766    9.2075932    9.2075932    9.2075932    61.677072 
    3000    307.15371   -10554.709            0   -9640.0576    10009.048    779.83943    9.2045324    9.2045324    9.2045324    70.440089 
Loop time of 13.6476 on 16 procs for 1000 steps with 1000 atoms

Performance: 6.331 ns/day, 3.791 hours/ns, 73.273 timesteps/s
94.9% CPU use with 16 MPI tasks x no OpenMP threads

MPI task timing breakdown:
Section |  min time  |  avg time  |  max time  |%varavg| %total
---------------------------------------------------------------
Pair    | 1.8582     | 1.9805     | 2.0908     |   5.2 | 14.51
Neigh   | 0.74925    | 0.78478    | 0.84273    |   2.8 |  5.75
Comm    | 0.68327    | 0.84399    | 0.99656    |  10.4 |  6.18
Output  | 6.3514     | 6.5817     | 9.9799     |  34.2 | 48.23
Modify  | 0.048332   | 3.4476     | 3.6781     |  47.3 | 25.26
Other   |            | 0.00915    |            |       |  0.07

Nlocal:    62.5 ave 67 max 58 min
Histogram: 2 1 1 4 1 0 2 1 2 2
Nghost:    1864.56 ave 1878 max 1838 min
Histogram: 2 0 0 0 1 2 2 3 1 5
Neighs:    0 ave 0 max 0 min
Histogram: 16 0 0 0 0 0 0 0 0 0
FullNghs:  18935.2 ave 20330 max 17506 min
Histogram: 2 1 1 4 1 0 2 1 2 2

Total # of neighbors = 302964
Ave neighs/atom = 302.964
Neighbor list builds = 1000
Dangerous builds not checked
Setting up Verlet run ...
  Unit style    : real
  Current step  : 3000
  Time step     : 1
Per MPI rank memory allocation (min/avg/max) = 4.577 | 4.578 | 4.579 Mbytes
Step Temp E_pair E_mol TotEng Press Volume Lx Ly Lz S/CPU 
    3000    307.15371   -10554.709            0   -9640.0576    10009.048    779.83943    9.2045324    9.2045324    9.2045324            0 
    3100    299.02469   -10537.964            0   -9647.5193    23360.195     780.3114    9.2063889    9.2063889    9.2063889    74.582528 
    3200     296.1206    -10536.95            0   -9655.1533    12754.018    781.99819    9.2130179    9.2130179    9.2130179    79.807261 
    3300    286.88461   -10515.466            0   -9661.1722    4096.0939     784.2497    9.2218514    9.2218514    9.2218514    58.927364 
    3400    290.85867    -10531.58            0   -9665.4529    4540.3719    786.59315    9.2310277    9.2310277    9.2310277    73.558203 
    3500    292.23446   -10538.709            0    -9668.485   -6278.0706    788.83696    9.2397967    9.2397967    9.2397967    75.517829 
    3600    289.63032    -10531.38            0   -9668.9108   -15204.912    790.49417    9.2462626    9.2462626    9.2462626      72.1997 
    3700     288.7235   -10527.918            0   -9668.1486   -16057.992    791.34375    9.2495739    9.2495739    9.2495739    75.050016 
    3800    287.32802   -10520.355            0   -9664.7413   -10352.182    791.36844    9.2496701    9.2496701    9.2496701    84.242986 
    3900    294.92841   -10538.425            0   -9660.1787    4892.5122    790.75967    9.2472977    9.2472977    9.2472977    76.956806 
    4000    293.82343   -10528.242            0   -9653.2856   -11139.955    789.63557    9.2429138    9.2429138    9.2429138    56.714529 
Loop time of 13.9417 on 16 procs for 1000 steps with 1000 atoms

Performance: 6.197 ns/day, 3.873 hours/ns, 71.727 timesteps/s
94.9% CPU use with 16 MPI tasks x no OpenMP threads

MPI task timing breakdown:
Section |  min time  |  avg time  |  max time  |%varavg| %total
---------------------------------------------------------------
Pair    | 1.9138     | 1.995      | 2.1121     |   4.2 | 14.31
Neigh   | 0.76754    | 0.79079    | 0.82443    |   1.8 |  5.67
Comm    | 0.71014    | 0.85475    | 0.95237    |   8.0 |  6.13
Output  | 6.5702     | 6.8041     | 10.242     |  34.0 | 48.80
Modify  | 0.055177   | 3.4879     | 3.7212     |  47.5 | 25.02
Other   |            | 0.009202   |            |       |  0.07

Nlocal:    62.5 ave 69 max 58 min
Histogram: 3 3 1 2 1 0 4 0 1 1
Nghost:    1840.38 ave 1866 max 1811 min
Histogram: 2 1 2 1 0 3 2 1 2 2
Neighs:    0 ave 0 max 0 min
Histogram: 16 0 0 0 0 0 0 0 0 0
FullNghs:  18693.5 ave 20593 max 17460 min
Histogram: 4 2 2 1 1 0 2 2 1 1

Total # of neighbors = 299096
Ave neighs/atom = 299.096
Neighbor list builds = 1000
Dangerous builds not checked
Setting up Verlet run ...
  Unit style    : real
  Current step  : 4000
  Time step     : 1
Per MPI rank memory allocation (min/avg/max) = 4.577 | 4.578 | 4.579 Mbytes
Step Temp E_pair E_mol TotEng Press Volume Lx Ly Lz S/CPU 
    4000    293.82343   -10528.242            0   -9653.2856   -11139.955    789.63557    9.2429138    9.2429138    9.2429138            0 
    4100    301.56576   -10543.276            0   -9645.2643    -12235.87    787.73249    9.2354824    9.2354824    9.2354824    81.287143 
    4200      285.704   -10485.531            0   -9634.7532    6446.9283    785.56971    9.2270225    9.2270225    9.2270225    73.990134 
    4300    296.39318   -10508.596            0   -9625.9881    13998.655    784.07465    9.2211652    9.2211652    9.2211652    60.137773 
    4400    310.17367   -10541.296            0   -9617.6516    12333.325    783.60717    9.2193323    9.2193323    9.2193323    74.523924 
    4500     302.6673   -10509.133            0   -9607.8411    7253.6091    784.08177    9.2211931    9.2211931    9.2211931    75.528397 
    4600    303.14462    -10505.54            0   -9602.8272    7792.2692    785.26501    9.2258293    9.2258293    9.2258293    92.284029 
    4700    295.48115   -10475.528            0   -9595.6353    14326.953    786.91247    9.2322766    9.2322766    9.2322766    53.827333 
    4800    294.60609   -10466.904            0   -9589.6172     8561.607    789.14616    9.2410038    9.2410038    9.2410038    70.947882 
    4900    300.39573   -10477.832            0   -9583.3047    2486.8064    791.69687    9.2509495    9.2509495    9.2509495    88.495525 
    5000    291.27508   -10444.169            0   -9576.8012   -13273.825    794.20725    9.2607171    9.2607171    9.2607171    69.926068 
Loop time of 13.8214 on 16 procs for 1000 steps with 1000 atoms

Performance: 6.251 ns/day, 3.839 hours/ns, 72.351 timesteps/s
94.9% CPU use with 16 MPI tasks x no OpenMP threads

MPI task timing breakdown:
Section |  min time  |  avg time  |  max time  |%varavg| %total
---------------------------------------------------------------
Pair    | 1.8558     | 1.997      | 2.1243     |   5.1 | 14.45
Neigh   | 0.75008    | 0.79298    | 0.82077    |   2.2 |  5.74
Comm    | 0.70824    | 0.84228    | 1.0271     |   9.7 |  6.09
Output  | 6.8635     | 7.0676     | 10.073     |  29.2 | 51.13
Modify  | 0.10622    | 3.1124     | 3.3178     |  44.0 | 22.52
Other   |            | 0.009158   |            |       |  0.07

Nlocal:    62.5 ave 68 max 54 min
Histogram: 1 0 1 0 0 7 2 2 0 3
Nghost:    1848.44 ave 1864 max 1834 min
Histogram: 2 2 2 1 0 1 4 1 1 2
Neighs:    0 ave 0 max 0 min
Histogram: 16 0 0 0 0 0 0 0 0 0
FullNghs:  18580 ave 20252 max 15957 min
Histogram: 1 0 1 0 0 6 4 1 0 3

Total # of neighbors = 297280
Ave neighs/atom = 297.28
Neighbor list builds = 1000
Dangerous builds not checked
Setting up Verlet run ...
  Unit style    : real
  Current step  : 5000
  Time step     : 1
Per MPI rank memory allocation (min/avg/max) = 4.577 | 4.578 | 4.579 Mbytes
Step Temp E_pair E_mol TotEng Press Volume Lx Ly Lz S/CPU 
    5000    291.27508   -10444.169            0   -9576.8012   -13273.825    794.20725    9.2607171    9.2607171    9.2607171            0 
    5100    298.15954   -10459.676            0   -9571.8081   -19975.962    796.49418    9.2695973    9.2695973    9.2695973    61.002029 
    5200    302.21002   -10465.225            0   -9565.2953   -8906.8582    797.78414    9.2745988    9.2745988    9.2745988    72.794602 
    5300    309.31508   -10482.065            0   -9560.9778    -10730.88    798.14232    9.2759866    9.2759866    9.2759866    74.345349 
    5400    312.92156   -10488.035            0   -9556.2082   -5993.9935    797.55598    9.2737146    9.2737146    9.2737146    69.010637 
    5500    305.55333   -10462.857            0    -9552.971    2422.8465    796.19386    9.2684322    9.2684322    9.2684322    77.919096 
    5600     295.0073    -10427.82            0   -9549.3385   -784.69769    794.50768    9.2618846    9.2618846    9.2618846    83.269108 
    5700    288.97827   -10406.788            0   -9546.2605    226.91223    792.85298    9.2554503    9.2554503    9.2554503    80.147758 
    5800    319.40222   -10495.106            0   -9543.9803   -6729.6103    791.05825    9.2484614    9.2484614    9.2484614    61.438495 
    5900    306.10693   -10451.751            0   -9540.2168    -4343.432    789.18212    9.2411442    9.2411442    9.2411442    74.083904 
    6000    303.62929   -10441.064            0   -9536.9081   -528.39077    787.32982    9.2339085    9.2339085    9.2339085    66.269111 
Loop time of 14.0256 on 16 procs for 1000 steps with 1000 atoms

Performance: 6.160 ns/day, 3.896 hours/ns, 71.298 timesteps/s
94.9% CPU use with 16 MPI tasks x no OpenMP threads

MPI task timing breakdown:
Section |  min time  |  avg time  |  max time  |%varavg| %total
---------------------------------------------------------------
Pair    | 1.8251     | 1.9377     | 2.0038     |   4.0 | 13.82
Neigh   | 0.75322    | 0.7791     | 0.79931    |   1.5 |  5.55
Comm    | 0.78219    | 0.86537    | 1.0038     |   7.1 |  6.17
Output  | 6.6055     | 6.846      | 10.399     |  35.1 | 48.81
Modify  | 0.03507    | 3.5883     | 3.8287     |  48.4 | 25.58
Other   |            | 0.009088   |            |       |  0.06

Nlocal:    62.5 ave 70 max 58 min
Histogram: 2 1 2 3 4 3 0 0 0 1
Nghost:    1850.56 ave 1874 max 1833 min
Histogram: 4 2 2 0 1 1 1 2 1 2
Neighs:    0 ave 0 max 0 min
Histogram: 16 0 0 0 0 0 0 0 0 0
FullNghs:  18747 ave 21139 max 17421 min
Histogram: 2 1 4 4 3 1 0 0 0 1

Total # of neighbors = 299952
Ave neighs/atom = 299.952
Neighbor list builds = 1000
Dangerous builds not checked
Setting up Verlet run ...
  Unit style    : real
  Current step  : 6000
  Time step     : 1
Per MPI rank memory allocation (min/avg/max) = 4.577 | 4.578 | 4.579 Mbytes
Step Temp E_pair E_mol TotEng Press Volume Lx Ly Lz S/CPU 
    6000    303.62929   -10441.064            0   -9536.9081   -528.39077    787.32982    9.2339085    9.2339085    9.2339085            0 
    6100    312.73978   -10465.083            0   -9533.7974   -7493.8465     785.6371    9.2272863    9.2272863    9.2272863     63.30215 
    6200    315.46351    -10471.95            0   -9532.5536    17349.474    784.30862    9.2220823    9.2220823    9.2220823    81.018734 
    6300    302.90318   -10435.093            0   -9533.0988    2041.2556    783.34188    9.2182917    9.2182917    9.2182917    76.186809 
    6400    303.09685   -10437.763            0   -9535.1921   -4257.5687    782.71359    9.2158265    9.2158265    9.2158265    82.373092 
    6500    302.79218   -10444.235            0   -9542.5714   -10818.528    781.84444    9.2124141    9.2124141    9.2124141    68.937915 
    6600    308.58183   -10471.162            0   -9552.2577    1167.2037    780.44526    9.2069153    9.2069153    9.2069153    68.007301 
    6700    302.23438   -10464.079            0   -9564.0764    6614.8577    779.09217    9.2015915    9.2015915    9.2015915    67.276117 
    6800     302.6697   -10479.627            0   -9578.3282   -4506.0945    778.16404    9.1979361    9.1979361    9.1979361    61.364821 
    6900    298.64764   -10479.717            0   -9590.3952    1242.8879    777.57247    9.1956047    9.1956047    9.1956047    72.129358 
    7000     305.7263   -10511.658            0   -9601.2577    35825.381    777.58449     9.195652     9.195652     9.195652    63.338754 
Loop time of 14.3428 on 16 procs for 1000 steps with 1000 atoms

Performance: 6.024 ns/day, 3.984 hours/ns, 69.721 timesteps/s
94.9% CPU use with 16 MPI tasks x no OpenMP threads

MPI task timing breakdown:
Section |  min time  |  avg time  |  max time  |%varavg| %total
---------------------------------------------------------------
Pair    | 1.8664     | 2.0143     | 2.1569     |   4.9 | 14.04
Neigh   | 0.75633    | 0.78964    | 0.82857    |   2.1 |  5.51
Comm    | 0.65947    | 0.83898    | 1.008      |   9.4 |  5.85
Output  | 7.1353     | 7.3578     | 10.641     |  31.3 | 51.30
Modify  | 0.047184   | 3.3329     | 3.5558     |  46.5 | 23.24
Other   |            | 0.009172   |            |       |  0.06

Nlocal:    62.5 ave 74 max 55 min
Histogram: 2 1 4 0 5 0 1 2 0 1
Nghost:    1872.94 ave 1900 max 1836 min
Histogram: 2 0 2 0 0 2 6 1 1 2
Neighs:    0 ave 0 max 0 min
Histogram: 16 0 0 0 0 0 0 0 0 0
FullNghs:  18981.5 ave 22457 max 16622 min
Histogram: 2 3 2 1 4 0 1 1 1 1

Total # of neighbors = 303704
Ave neighs/atom = 303.704
Neighbor list builds = 1000
Dangerous builds not checked
Setting up Verlet run ...
  Unit style    : real
  Current step  : 7000
  Time step     : 1
Per MPI rank memory allocation (min/avg/max) = 4.577 | 4.578 | 4.579 Mbytes
Step Temp E_pair E_mol TotEng Press Volume Lx Ly Lz S/CPU 
    7000     305.7263   -10511.658            0   -9601.2577    35825.381    777.58449     9.195652     9.195652     9.195652            0 
    7100    305.44086   -10519.208            0   -9609.6576    19426.157    778.76131    9.2002887    9.2002887    9.2002887    58.218831 
    7200    292.51105   -10487.773            0   -9616.7253   -8087.8597    780.64938    9.2077179    9.2077179    9.2077179    74.818142 
    7300    290.88128   -10487.442            0   -9621.2472    5690.6708    782.86275    9.2164119    9.2164119    9.2164119    84.268829 
    7400    296.24841    -10506.66            0   -9624.4824   -7046.9058    785.31183    9.2260127    9.2260127    9.2260127    72.036433 
    7500    308.22381   -10544.048            0   -9626.2105   -18886.501     787.2757    9.2336969    9.2336969    9.2336969    63.663433 
    7600    295.68099   -10505.731            0   -9625.2436   -9975.1478    788.48875     9.238437     9.238437     9.238437    72.412002 
    7700    290.73822   -10489.871            0   -9624.1019   -5782.1484     789.1866    9.2411617    9.2411617    9.2411617    99.145756 
    7800    300.99611   -10519.302            0   -9622.9872   -19325.246    789.40762    9.2420243    9.2420243    9.2420243    62.641813 
    7900      295.142    -10498.67            0   -9619.7879   -8558.0948    788.91314    9.2400942    9.2400942    9.2400942    58.444532 
    8000    304.11313   -10522.484            0   -9616.8868   -12818.098    787.86694    9.2360078    9.2360078    9.2360078     85.87301 
Loop time of 14.0614 on 16 procs for 1000 steps with 1000 atoms

Performance: 6.144 ns/day, 3.906 hours/ns, 71.117 timesteps/s
94.9% CPU use with 16 MPI tasks x no OpenMP threads

MPI task timing breakdown:
Section |  min time  |  avg time  |  max time  |%varavg| %total
---------------------------------------------------------------
Pair    | 1.8473     | 1.9671     | 2.1106     |   5.2 | 13.99
Neigh   | 0.74535    | 0.77966    | 0.82198    |   2.5 |  5.54
Comm    | 0.68757    | 0.86257    | 1.0094     |  10.0 |  6.13
Output  | 6.9057     | 7.123      | 10.327     |  31.0 | 50.66
Modify  | 0.11618    | 3.3199     | 3.5419     |  45.4 | 23.61
Other   |            | 0.00913    |            |       |  0.06

Nlocal:    62.5 ave 69 max 56 min
Histogram: 2 0 0 2 5 1 3 2 0 1
Nghost:    1852.81 ave 1868 max 1840 min
Histogram: 1 2 3 1 2 2 2 1 1 1
Neighs:    0 ave 0 max 0 min
Histogram: 16 0 0 0 0 0 0 0 0 0
FullNghs:  18749.2 ave 20915 max 16884 min
Histogram: 2 0 2 2 4 1 3 1 0 1

Total # of neighbors = 299988
Ave neighs/atom = 299.988
Neighbor list builds = 1000
Dangerous builds not checked
Setting up Verlet run ...
  Unit style    : real
  Current step  : 8000
  Time step     : 1
Per MPI rank memory allocation (min/avg/max) = 4.577 | 4.578 | 4.579 Mbytes
Step Temp E_pair E_mol TotEng Press Volume Lx Ly Lz S/CPU 
    8000    304.11313   -10522.484            0   -9616.8868   -12818.098    787.86694    9.2360078    9.2360078    9.2360078            0 
    8100    308.23878   -10531.195            0   -9613.3124   -1366.2453    786.23241    9.2296163    9.2296163    9.2296163    72.819686 
    8200    294.50597   -10483.849            0   -9606.8605   -1468.5821    784.74501    9.2237924    9.2237924    9.2237924     71.74426 
    8300    297.91952   -10488.895            0   -9601.7412    244.49398    783.20872    9.2177694    9.2177694    9.2177694    70.288429 
    8400    315.61266   -10536.804            0    -9596.963    4117.5348    781.47493    9.2109626    9.2109626    9.2109626    86.631914 
    8500    312.52101   -10520.569            0   -9589.9348    18116.207    779.85917      9.20461      9.20461      9.20461    91.200374 
    8600    305.59966   -10491.615            0   -9581.5909    16518.097    779.10679     9.201649     9.201649     9.201649    55.554155 
    8700    302.09968   -10472.825            0   -9573.2233    15624.253    779.39679    9.2027905    9.2027905    9.2027905    77.817415 
    8800    297.49911   -10450.616            0   -9564.7142    15445.966    780.72767    9.2080257    9.2080257    9.2080257    70.832178 
    8900    315.67062   -10496.814            0   -9556.8006    20455.922    783.32885    9.2182406    9.2182406    9.2182406     56.52857 
    9000    307.92542   -10464.637            0   -9547.6872   -1216.5788    787.10695    9.2330371    9.2330371    9.2330371    68.652118 
Loop time of 14.1632 on 16 procs for 1000 steps with 1000 atoms

Performance: 6.100 ns/day, 3.934 hours/ns, 70.606 timesteps/s
94.9% CPU use with 16 MPI tasks x no OpenMP threads

MPI task timing breakdown:
Section |  min time  |  avg time  |  max time  |%varavg| %total
---------------------------------------------------------------
Pair    | 1.9226     | 2.0144     | 2.102      |   3.8 | 14.22
Neigh   | 0.7536     | 0.78847    | 0.82267    |   2.2 |  5.57
Comm    | 0.70276    | 0.81666    | 0.94305    |   8.0 |  5.77
Output  | 6.906      | 7.1332     | 10.486     |  32.4 | 50.36
Modify  | 0.047878   | 3.4012     | 3.6285     |  46.9 | 24.01
Other   |            | 0.009218   |            |       |  0.07

Nlocal:    62.5 ave 68 max 58 min
Histogram: 1 1 3 1 2 2 1 4 0 1
Nghost:    1846.31 ave 1861 max 1826 min
Histogram: 1 1 0 2 3 1 1 2 3 2
Neighs:    0 ave 0 max 0 min
Histogram: 16 0 0 0 0 0 0 0 0 0
FullNghs:  18764.4 ave 20376 max 17329 min
Histogram: 1 1 3 1 2 2 2 3 0 1

Total # of neighbors = 300230
Ave neighs/atom = 300.23
Neighbor list builds = 1000
Dangerous builds not checked
Setting up Verlet run ...
  Unit style    : real
  Current step  : 9000
  Time step     : 1
Per MPI rank memory allocation (min/avg/max) = 4.577 | 4.578 | 4.579 Mbytes
Step Temp E_pair E_mol TotEng Press Volume Lx Ly Lz S/CPU 
    9000    307.92542   -10464.637            0   -9547.6872   -1216.5788    787.10695    9.2330371    9.2330371    9.2330371            0 
    9100    300.06835    -10432.39            0   -9538.8378    7343.8985    791.17736    9.2489256    9.2489256    9.2489256    82.225485 
    9200    312.37914   -10461.719            0   -9531.5071   -14182.706    794.98285    9.2637307    9.2637307    9.2637307    66.142112 
    9300    308.69294   -10444.286            0    -9525.051   -10799.841    797.68556    9.2742168    9.2742168    9.2742168    61.956871 
    9400    308.67337   -10438.133            0   -9518.9565   -9999.4844    799.26583    9.2803371    9.2803371    9.2803371    83.051239 
    9500    321.32923   -10477.181            0    -9520.317   -30514.749    799.96656    9.2830483    9.2830483    9.2830483    72.772855 
    9600    311.51153   -10449.471            0   -9521.8432   -11193.385    799.58885    9.2815871    9.2815871    9.2815871    57.345005 
    9700    313.21368   -10460.596            0   -9527.8987   -5304.1324    798.25014    9.2764043    9.2764043    9.2764043    69.095369 
    9800    312.35883   -10469.148            0   -9538.9966   -13016.273    795.81207    9.2669504    9.2669504    9.2669504    65.381808 
    9900    308.38519   -10472.734            0    -9554.416   -17841.129    792.34615    9.2534777    9.2534777    9.2534777    67.951559 
   10000    293.06776   -10443.519            0   -9570.8135   -1973.7688    788.03476    9.2366636    9.2366636    9.2366636    71.640205 
Loop time of 14.5084 on 16 procs for 1000 steps with 1000 atoms

Performance: 5.955 ns/day, 4.030 hours/ns, 68.926 timesteps/s
94.9% CPU use with 16 MPI tasks x no OpenMP threads

MPI task timing breakdown:
Section |  min time  |  avg time  |  max time  |%varavg| %total
---------------------------------------------------------------
Pair    | 1.8165     | 1.9321     | 2.0999     |   5.9 | 13.32
Neigh   | 0.74227    | 0.7784     | 0.86586    |   3.4 |  5.37
Comm    | 0.63206    | 0.88632    | 1.0364     |  11.3 |  6.11
Output  | 7.1669     | 7.4007     | 10.852     |  32.8 | 51.01
Modify  | 0.049026   | 3.5012     | 3.7354     |  47.6 | 24.13
Other   |            | 0.009667   |            |       |  0.07

Nlocal:    62.5 ave 69 max 58 min
Histogram: 3 2 2 2 2 1 0 2 0 2
Nghost:    1847.12 ave 1864 max 1829 min
Histogram: 2 0 1 4 1 2 0 0 4 2
Neighs:    0 ave 0 max 0 min
Histogram: 16 0 0 0 0 0 0 0 0 0
FullNghs:  18696.1 ave 20805 max 17262 min
Histogram: 3 1 3 2 1 2 2 0 1 1

Total # of neighbors = 299138
Ave neighs/atom = 299.138
Neighbor list builds = 1000
Dangerous builds not checked
Setting up Verlet run ...
  Unit style    : real
  Current step  : 10000
  Time step     : 1
Per MPI rank memory allocation (min/avg/max) = 4.577 | 4.578 | 4.579 Mbytes
Step Temp E_pair E_mol TotEng Press Volume Lx Ly Lz S/CPU 
   10000    293.06776   -10443.519            0   -9570.8135   -1973.7688    788.03476    9.2366636    9.2366636    9.2366636            0 
   10100    291.03977   -10452.704            0   -9586.0376    7395.9652    783.72209    9.2197829    9.2197829    9.2197829     84.80982 
   10200    310.50889   -10522.275            0   -9597.6325    1656.9666    779.94509    9.2049481    9.2049481    9.2049481    85.705563 
   10300    313.39586   -10537.722            0   -9604.4831    12997.194    777.05821     9.193577     9.193577     9.193577    56.750489 
   10400    304.49026    -10515.79            0   -9609.0704    22146.965    775.37382    9.1869294    9.1869294    9.1869294    80.567619 
   10500    301.28697   -10511.585            0   -9614.4043    11512.338    774.91975    9.1851357    9.1851357    9.1851357    84.485554 
   10600    301.30814   -10516.153            0   -9618.9086    12364.098    775.29373     9.186613     9.186613     9.186613    83.450134 
   10700    303.90893   -10528.323            0   -9623.3343    10107.966    775.85641    9.1888349    9.1888349    9.1888349    57.108824 
   10800    297.67801   -10513.404            0   -9626.9696   -4022.8762    776.70829    9.1921968    9.1921968    9.1921968    77.937082 
   10900    294.67086   -10507.314            0   -9629.8347     9731.601    777.63459    9.1958495    9.1958495    9.1958495    87.394862 
   11000    287.05762   -10486.895            0   -9632.0863   -11082.375    778.60214    9.1996619    9.1996619    9.1996619    77.103634 
Loop time of 13.2065 on 16 procs for 1000 steps with 1000 atoms

Performance: 6.542 ns/day, 3.668 hours/ns, 75.720 timesteps/s
95.0% CPU use with 16 MPI tasks x no OpenMP threads

MPI task timing breakdown:
Section |  min time  |  avg time  |  max time  |%varavg| %total
---------------------------------------------------------------
Pair    | 1.9122     | 2.0398     | 2.1695     |   4.8 | 15.45
Neigh   | 0.74319    | 0.79345    | 0.83043    |   2.7 |  6.01
Comm    | 0.70292    | 0.85518    | 1.0332     |   9.8 |  6.48
Output  | 6.4817     | 6.6725     | 9.4757     |  28.0 | 50.52
Modify  | 0.032631   | 2.8364     | 3.0273     |  43.0 | 21.48
Other   |            | 0.009217   |            |       |  0.07

Nlocal:    62.5 ave 67 max 59 min
Histogram: 1 3 2 2 0 3 2 1 1 1
Nghost:    1854.88 ave 1879 max 1836 min
Histogram: 2 1 3 3 0 1 3 2 0 1
Neighs:    0 ave 0 max 0 min
Histogram: 16 0 0 0 0 0 0 0 0 0
FullNghs:  18941 ave 20497 max 17906 min
Histogram: 2 3 2 1 3 1 2 0 1 1

Total # of neighbors = 303056
Ave neighs/atom = 303.056
Neighbor list builds = 1000
Dangerous builds not checked
Setting up Verlet run ...
  Unit style    : real
  Current step  : 11000
  Time step     : 1
Per MPI rank memory allocation (min/avg/max) = 4.577 | 4.578 | 4.579 Mbytes
Step Temp E_pair E_mol TotEng Press Volume Lx Ly Lz S/CPU 
   11000    287.05762   -10486.895            0   -9632.0863   -11082.375    778.60214    9.1996619    9.1996619    9.1996619            0 
   11100    294.82208   -10511.706            0    -9633.776     8912.831    778.98029     9.201151     9.201151     9.201151    59.333641 
   11200    295.52541   -10514.489            0   -9634.4647    2310.0511     779.2438    9.2021884    9.2021884    9.2021884    79.110136 
   11300    288.50331   -10494.046            0   -9634.9327    9614.4913    779.48387    9.2031333    9.2031333    9.2031333    79.105296 
   11400    299.64216   -10528.391            0   -9636.1083   -2356.6607    779.81348    9.2044303    9.2044303    9.2044303    64.547911 
   11500    300.03438   -10527.632            0   -9634.1809   -9030.2875    779.90598    9.2047942    9.2047942    9.2047942    84.638828 
   11600    278.30343   -10461.061            0   -9632.3209   -10055.427    779.80636    9.2044023    9.2044023    9.2044023    73.775367 
   11700    309.28441   -10550.877            0   -9629.8805    2570.4515    779.62693    9.2036962    9.2036962    9.2036962    67.689565 
   11800    298.66842   -10514.179            0   -9624.7954    14065.535    779.54018    9.2033549    9.2033549    9.2033549    59.794989 
   11900    309.61319   -10541.938            0   -9619.9625    8062.3516    779.86219    9.2046219    9.2046219    9.2046219     75.39156 
   12000    293.96257   -10488.816            0   -9613.4455    8521.0093    780.64296    9.2076927    9.2076927    9.2076927    80.792084 
Loop time of 14.0137 on 16 procs for 1000 steps with 1000 atoms

Performance: 6.165 ns/day, 3.893 hours/ns, 71.359 timesteps/s
94.9% CPU use with 16 MPI tasks x no OpenMP threads

MPI task timing breakdown:
Section |  min time  |  avg time  |  max time  |%varavg| %total
---------------------------------------------------------------
Pair    | 1.8732     | 2.0083     | 2.1924     |   5.9 | 14.33
Neigh   | 0.74827    | 0.78628    | 0.85272    |   3.2 |  5.61
Comm    | 0.63782    | 0.88714    | 1.062      |  11.7 |  6.33
Output  | 6.9469     | 7.1567     | 10.249     |  29.8 | 51.07
Modify  | 0.072795   | 3.166      | 3.3838     |  44.9 | 22.59
Other   |            | 0.009191   |            |       |  0.07

Nlocal:    62.5 ave 66 max 58 min
Histogram: 1 2 0 2 0 1 5 2 1 2
Nghost:    1861.06 ave 1877 max 1849 min
Histogram: 3 1 1 4 1 3 0 0 2 1
Neighs:    0 ave 0 max 0 min
Histogram: 16 0 0 0 0 0 0 0 0 0
FullNghs:  18897.9 ave 20043 max 17437 min
Histogram: 1 2 0 1 2 1 4 2 1 2

Total # of neighbors = 302366
Ave neighs/atom = 302.366
Neighbor list builds = 1000
Dangerous builds not checked
Setting up Verlet run ...
  Unit style    : real
  Current step  : 12000
  Time step     : 1
Per MPI rank memory allocation (min/avg/max) = 4.577 | 4.578 | 4.579 Mbytes
Step Temp E_pair E_mol TotEng Press Volume Lx Ly Lz S/CPU 
   12000    293.96257   -10488.816            0   -9613.4455    8521.0093    780.64296    9.2076927    9.2076927    9.2076927            0 
   12100    304.09479   -10512.535            0   -9606.9926    1933.8148    781.89353    9.2126069    9.2126069    9.2126069    69.784672 
   12200    297.56791   -10483.687            0   -9597.5808    2370.7298    783.28139    9.2180545    9.2180545    9.2180545     65.40305 
   12300    296.59894   -10470.969            0   -9587.7479   -898.32837    784.68931    9.2235742    9.2235742    9.2235742    77.307395 
   12400    303.37809   -10481.535            0   -9578.1274   -6591.2906     785.9974    9.2286966    9.2286966    9.2286966    85.219994 
   12500    297.40407    -10454.21            0   -9568.5919    2690.4203    786.95679    9.2324499    9.2324499    9.2324499    61.418962 
   12600    297.09167   -10445.864            0   -9561.1762   -16491.348    787.16861    9.2332782    9.2332782    9.2332782    77.323587 
   12700    313.37401   -10487.763            0   -9554.5886    3197.4327    786.63997    9.2312108    9.2312108    9.2312108    90.583176 
   12800    309.17001   -10468.901            0   -9548.2459     8932.071     786.2181    9.2295603    9.2295603    9.2295603    69.427828 
   12900    310.30086   -10469.558            0   -9545.5347   -7655.5373    785.81322    9.2279757    9.2279757    9.2279757    65.313833 
   13000    307.79959     -10461.4            0   -9544.8253    10104.707    785.42934    9.2264728    9.2264728    9.2264728    76.641988 
Loop time of 13.7305 on 16 procs for 1000 steps with 1000 atoms

Performance: 6.293 ns/day, 3.814 hours/ns, 72.830 timesteps/s
95.0% CPU use with 16 MPI tasks x no OpenMP threads

MPI task timing breakdown:
Section |  min time  |  avg time  |  max time  |%varavg| %total
---------------------------------------------------------------
Pair    | 1.8634     | 1.9862     | 2.1496     |   5.0 | 14.47
Neigh   | 0.75444    | 0.78817    | 0.81385    |   2.2 |  5.74
Comm    | 0.67131    | 0.85879    | 1.0009     |   9.4 |  6.25
Output  | 6.9449     | 7.1406     | 10.022     |  27.8 | 52.01
Modify  | 0.065603   | 2.9476     | 3.1434     |  43.3 | 21.47
Other   |            | 0.009132   |            |       |  0.07

Nlocal:    62.5 ave 66 max 56 min
Histogram: 1 0 0 0 4 2 1 0 2 6
Nghost:    1848.19 ave 1861 max 1834 min
Histogram: 1 0 3 0 2 4 2 3 0 1
Neighs:    0 ave 0 max 0 min
Histogram: 16 0 0 0 0 0 0 0 0 0
FullNghs:  18810.1 ave 20116 max 17000 min
Histogram: 1 0 1 4 1 1 1 1 4 2

Total # of neighbors = 300962
Ave neighs/atom = 300.962
Neighbor list builds = 1000
Dangerous builds not checked
Setting up Verlet run ...
  Unit style    : real
  Current step  : 13000
  Time step     : 1
Per MPI rank memory allocation (min/avg/max) = 4.577 | 4.578 | 4.579 Mbytes
Step Temp E_pair E_mol TotEng Press Volume Lx Ly Lz S/CPU 
   13000    307.79959     -10461.4            0   -9544.8253    10104.707    785.42934    9.2264728    9.2264728    9.2264728            0 
   13100    299.35723   -10436.938            0   -9545.5031    11470.113    785.62345    9.2272328    9.2272328    9.2272328    85.195865 
   13200    305.33687   -10459.774            0   -9550.5325    8287.1739    786.35537    9.2300974    9.2300974    9.2300974    74.093449 
   13300    308.85577   -10477.986            0   -9558.2659    3103.6834    787.24893    9.2335922    9.2335922    9.2335922     61.47457 
   13400    317.78716   -10518.261            0   -9571.9451   -6701.2778    787.92911    9.2362508    9.2362508    9.2362508    74.750759 
   13500    302.86579    -10488.37            0   -9586.4872   -16052.647    788.11994    9.2369963    9.2369963    9.2369963    82.044956 
   13600    298.72542   -10493.855            0   -9604.3022   -6811.3966     787.4972    9.2345628    9.2345628    9.2345628     66.12164 
   13700    300.08543   -10510.305            0   -9616.7014   -11193.406     786.2516    9.2296914    9.2296914    9.2296914    85.193013 
   13800    298.52847   -10514.175            0    -9625.208   -5506.1077    784.29478    9.2220281    9.2220281    9.2220281    88.144649 
   13900    295.96996   -10512.073            0   -9630.7251     8184.984    781.97762    9.2129371    9.2129371    9.2129371    76.160364 
   14000    292.93409    -10505.34            0    -9633.032    -5546.213     780.0145    9.2052211    9.2052211    9.2052211    54.037925 
Loop time of 13.691 on 16 procs for 1000 steps with 1000 atoms

Performance: 6.311 ns/day, 3.803 hours/ns, 73.041 timesteps/s
94.9% CPU use with 16 MPI tasks x no OpenMP threads

MPI task timing breakdown:
Section |  min time  |  avg time  |  max time  |%varavg| %total
---------------------------------------------------------------
Pair    | 1.8608     | 1.9715     | 2.1321     |   5.0 | 14.40
Neigh   | 0.73948    | 0.78115    | 0.84453    |   2.8 |  5.71
Comm    | 0.64251    | 0.86486    | 1.0166     |  10.0 |  6.32
Output  | 6.7122     | 6.9205     | 9.9783     |  30.0 | 50.55
Modify  | 0.084119   | 3.1438     | 3.3527     |  44.6 | 22.96
Other   |            | 0.009153   |            |       |  0.07

Nlocal:    62.5 ave 67 max 57 min
Histogram: 1 0 2 1 1 1 4 3 1 2
Nghost:    1879.69 ave 1894 max 1860 min
Histogram: 2 0 1 2 3 0 0 2 2 4
Neighs:    0 ave 0 max 0 min
Histogram: 16 0 0 0 0 0 0 0 0 0
FullNghs:  18923.8 ave 20127 max 17256 min
Histogram: 1 1 2 0 1 1 4 2 2 2

Total # of neighbors = 302780
Ave neighs/atom = 302.78
Neighbor list builds = 1000
Dangerous builds not checked
Setting up Verlet run ...
  Unit style    : real
  Current step  : 14000
  Time step     : 1
Per MPI rank memory allocation (min/avg/max) = 4.577 | 4.578 | 4.579 Mbytes
Step Temp E_pair E_mol TotEng Press Volume Lx Ly Lz S/CPU 
   14000    292.93409    -10505.34            0    -9633.032    -5546.213     780.0145    9.2052211    9.2052211    9.2052211            0 
   14100    281.57495   -10472.784            0   -9634.3017    22533.246    778.28615    9.1984171    9.1984171    9.1984171    72.477404 
   14200    303.92162   -10540.396            0   -9635.3697    -893.1027    777.23817    9.1942867    9.1942867    9.1942867    73.192733 
   14300    294.53952   -10511.085            0   -9633.9971    11429.114    776.45529    9.1911986    9.1911986    9.1911986    62.872536 
   14400    302.89099   -10536.018            0   -9634.0608     4585.963     775.9489    9.1892001    9.1892001    9.1892001    75.518843 
   14500    300.64742   -10529.429            0   -9634.1523    4259.1809    775.57288    9.1877155    9.1877155    9.1877155    67.287932 
   14600    304.35948   -10539.373            0   -9633.0427     15463.13    775.54267    9.1875962    9.1875962    9.1875962     72.40212 
   14700     297.4965   -10517.972            0   -9632.0787   -2000.4534    776.15544    9.1900153    9.1900153    9.1900153    60.459807 
   14800    303.60269   -10534.938            0   -9630.8614    17800.984    777.16422    9.1939951    9.1939951    9.1939951    70.141127 
   14900    302.29193   -10529.155            0   -9628.9817    16526.545    778.69948    9.2000452    9.2000452    9.2000452    71.927237 
   15000    299.03404   -10518.065            0   -9627.5924    8857.7528    780.94186    9.2088677    9.2088677    9.2088677    50.212154 
Loop time of 14.9896 on 16 procs for 1000 steps with 1000 atoms

Performance: 5.764 ns/day, 4.164 hours/ns, 66.713 timesteps/s
94.9% CPU use with 16 MPI tasks x no OpenMP threads

MPI task timing breakdown:
Section |  min time  |  avg time  |  max time  |%varavg| %total
---------------------------------------------------------------
Pair    | 1.9364     | 2.0154     | 2.1467     |   3.5 | 13.45
Neigh   | 0.75546    | 0.78857    | 0.83547    |   2.3 |  5.26
Comm    | 0.70414    | 0.86842    | 0.98088    |   7.3 |  5.79
Output  | 7.4836     | 7.7206     | 11.219     |  32.5 | 51.51
Modify  | 0.096236   | 3.5874     | 3.828      |  47.6 | 23.93
Other   |            | 0.009207   |            |       |  0.06

Nlocal:    62.5 ave 67 max 58 min
Histogram: 2 0 1 2 3 3 2 0 2 1
Nghost:    1861.44 ave 1875 max 1839 min
Histogram: 1 0 2 0 2 1 3 3 2 2
Neighs:    0 ave 0 max 0 min
Histogram: 16 0 0 0 0 0 0 0 0 0
FullNghs:  18899 ave 20279 max 17365 min
Histogram: 2 0 1 2 2 4 1 1 1 2

Total # of neighbors = 302384
Ave neighs/atom = 302.384
Neighbor list builds = 1000
Dangerous builds not checked
Setting up Verlet run ...
  Unit style    : real
  Current step  : 15000
  Time step     : 1
Per MPI rank memory allocation (min/avg/max) = 4.577 | 4.578 | 4.579 Mbytes
Step Temp E_pair E_mol TotEng Press Volume Lx Ly Lz S/CPU 
   15000    299.03404   -10518.065            0   -9627.5924    8857.7528    780.94186    9.2088677    9.2088677    9.2088677            0 
   15100    307.11869   -10541.554            0   -9627.0071   -4389.2908    783.68411     9.219634     9.219634     9.219634    78.404648 
   15200    311.40469   -10552.819            0   -9625.5093   -17839.164    786.35653     9.230102     9.230102     9.230102    89.818419 
   15300    300.25779   -10516.313            0   -9622.1964   -11035.277    788.38259    9.2380224    9.2380224    9.2380224     58.35751 
   15400    295.15659   -10497.982            0   -9619.0562   -5909.6471    789.62966    9.2428907    9.2428907    9.2428907    59.116981 
   15500    303.11919   -10517.019            0   -9614.3815   -159.39981    790.53981    9.2464406    9.2464406    9.2464406    76.771283 
   15600     298.1315     -10495.5            0   -9607.7151   -11728.857    791.17912    9.2489324    9.2489324    9.2489324    79.484378 
   15700     302.7899   -10498.881            0   -9597.2239   -8738.6656    790.83102    9.2475758    9.2475758    9.2475758    65.757584 
   15800    297.53275   -10472.078            0   -9586.0761   -772.03646    789.50839    9.2424175    9.2424175    9.2424175    67.892305 
   15900    300.52693   -10470.143            0   -9575.2253    8265.8859    787.52376    9.2346666    9.2346666    9.2346666    85.023572 
   16000     295.4346   -10442.803            0    -9563.049   -8829.3576    785.53022    9.2268678    9.2268678    9.2268678    75.195874 
Loop time of 13.8543 on 16 procs for 1000 steps with 1000 atoms

Performance: 6.236 ns/day, 3.848 hours/ns, 72.180 timesteps/s
94.9% CPU use with 16 MPI tasks x no OpenMP threads

MPI task timing breakdown:
Section |  min time  |  avg time  |  max time  |%varavg| %total
---------------------------------------------------------------
Pair    | 1.8497     | 1.9887     | 2.1296     |   4.5 | 14.35
Neigh   | 0.76051    | 0.78623    | 0.81941    |   1.9 |  5.68
Comm    | 0.65153    | 0.82559    | 0.98324    |   8.6 |  5.96
Output  | 6.7799     | 6.9949     | 10.165     |  30.9 | 50.49
Modify  | 0.080535   | 3.2497     | 3.4646     |  45.4 | 23.46
Other   |            | 0.009174   |            |       |  0.07

Nlocal:    62.5 ave 69 max 58 min
Histogram: 3 0 6 2 0 1 0 1 1 2
Nghost:    1862.81 ave 1873 max 1840 min
Histogram: 1 0 0 0 2 1 2 5 2 3
Neighs:    0 ave 0 max 0 min
Histogram: 16 0 0 0 0 0 0 0 0 0
FullNghs:  18779.9 ave 20929 max 17506 min
Histogram: 3 0 6 2 0 1 1 1 1 1

Total # of neighbors = 300478
Ave neighs/atom = 300.478
Neighbor list builds = 1000
Dangerous builds not checked
Setting up Verlet run ...
  Unit style    : real
  Current step  : 16000
  Time step     : 1
Per MPI rank memory allocation (min/avg/max) = 4.577 | 4.578 | 4.579 Mbytes
Step Temp E_pair E_mol TotEng Press Volume Lx Ly Lz S/CPU 
   16000     295.4346   -10442.803            0    -9563.049   -8829.3576    785.53022    9.2268678    9.2268678    9.2268678            0 
   16100    309.49195   -10476.431            0   -9554.8171    8233.3577    783.50951    9.2189493    9.2189493    9.2189493    62.763933 
   16200    293.16079   -10419.763            0   -9546.7803   -858.02758    782.14923     9.213611     9.213611     9.213611    67.791405 
   16300    299.97035   -10435.987            0   -9542.7264    14091.745    781.53393    9.2111943    9.2111943    9.2111943    88.902831 
   16400     311.9951   -10469.612            0   -9540.5438    18615.713    781.88419    9.2125702    9.2125702    9.2125702    60.596706 
   16500    307.54034   -10454.797            0   -9538.9944    17281.539    783.08575    9.2172869    9.2172869    9.2172869    72.979759 
   16600    297.71975   -10425.809            0   -9539.2503    1129.2479    784.60909    9.2232599    9.2232599    9.2232599    90.515862 
   16700    298.12732   -10430.743            0   -9542.9704   -8252.7613    785.98559    9.2286504    9.2286504    9.2286504    74.116579 
   16800    301.97749   -10444.822            0   -9545.5848   -9008.8757    787.02804    9.2327286    9.2327286    9.2327286    65.168307 
   16900    312.62776   -10482.794            0   -9551.8419    8472.1292    787.67409    9.2352542    9.2352542    9.2352542    87.210887 
   17000    300.23717   -10451.977            0    -9557.922   -11323.914    788.27999    9.2376216    9.2376216    9.2376216    110.22451 
Loop time of 13.2561 on 16 procs for 1000 steps with 1000 atoms

Performance: 6.518 ns/day, 3.682 hours/ns, 75.437 timesteps/s
95.0% CPU use with 16 MPI tasks x no OpenMP threads

MPI task timing breakdown:
Section |  min time  |  avg time  |  max time  |%varavg| %total
---------------------------------------------------------------
Pair    | 1.8582     | 1.99       | 2.1024     |   4.7 | 15.01
Neigh   | 0.75621    | 0.78892    | 0.83335    |   2.4 |  5.95
Comm    | 0.7086     | 0.84501    | 0.99307    |   9.2 |  6.37
Output  | 6.0469     | 6.2698     | 9.5582     |  33.9 | 47.30
Modify  | 0.064189   | 3.3532     | 3.5762     |  46.4 | 25.30
Other   |            | 0.009146   |            |       |  0.07

Nlocal:    62.5 ave 70 max 54 min
Histogram: 1 0 0 2 3 5 1 3 0 1
Nghost:    1851.81 ave 1875 max 1836 min
Histogram: 2 0 2 5 2 4 0 0 0 1
Neighs:    0 ave 0 max 0 min
Histogram: 16 0 0 0 0 0 0 0 0 0
FullNghs:  18712 ave 20804 max 16110 min
Histogram: 1 0 1 1 3 5 1 1 2 1

Total # of neighbors = 299392
Ave neighs/atom = 299.392
Neighbor list builds = 1000
Dangerous builds not checked
Setting up Verlet run ...
  Unit style    : real
  Current step  : 17000
  Time step     : 1
Per MPI rank memory allocation (min/avg/max) = 4.577 | 4.578 | 4.579 Mbytes
Step Temp E_pair E_mol TotEng Press Volume Lx Ly Lz S/CPU 
   17000    300.23717   -10451.977            0    -9557.922   -11323.914    788.27999    9.2376216    9.2376216    9.2376216            0 
   17100    303.64929   -10471.603            0   -9567.3869   -6544.1257    788.80144     9.239658     9.239658     9.239658    62.279176 
   17200    295.39069   -10457.018            0   -9577.3947   -4921.7229    789.15812    9.2410505    9.2410505    9.2410505     83.63515 
   17300    304.44211   -10495.004            0    -9588.427    1843.5509    789.59878    9.2427702    9.2427702    9.2427702    76.775555 
   17400    296.72421   -10484.827            0   -9601.2334   -13078.867    790.05215    9.2445389    9.2445389    9.2445389    70.730012 
   17500    296.09702   -10495.533            0   -9613.8067   -4334.9121    790.24098    9.2452753    9.2452753    9.2452753    79.062878 
   17600    297.56288   -10509.298            0   -9623.2064   -8780.6284    789.66489    9.2430282    9.2430282    9.2430282    85.486315 
   17700    290.00638    -10492.53            0   -9628.9401   -9218.2138    788.06896    9.2367972    9.2367972    9.2367972    71.486787 
   17800    295.37312   -10514.408            0   -9634.8369   -1650.8877    786.01079     9.228749     9.228749     9.228749    63.712319 
   17900    293.99918   -10512.552            0   -9637.0727      7495.39    783.93971    9.2206362    9.2206362    9.2206362    70.523819 
   18000    305.20748   -10548.299            0   -9639.4431    20007.822    782.21148    9.2138555    9.2138555    9.2138555     79.80956 
Loop time of 13.5917 on 16 procs for 1000 steps with 1000 atoms

Performance: 6.357 ns/day, 3.775 hours/ns, 73.574 timesteps/s
95.0% CPU use with 16 MPI tasks x no OpenMP threads

MPI task timing breakdown:
Section |  min time  |  avg time  |  max time  |%varavg| %total
---------------------------------------------------------------
Pair    | 1.8454     | 1.9839     | 2.1027     |   4.4 | 14.60
Neigh   | 0.76649    | 0.7919     | 0.85268    |   2.2 |  5.83
Comm    | 0.70089    | 0.8809     | 1.0318     |   8.3 |  6.48
Output  | 6.7828     | 6.979      | 9.8678     |  28.2 | 51.35
Modify  | 0.058106   | 2.9467     | 3.1437     |  43.4 | 21.68
Other   |            | 0.009235   |            |       |  0.07

Nlocal:    62.5 ave 67 max 57 min
Histogram: 1 0 1 1 2 4 1 2 2 2
Nghost:    1858.69 ave 1883 max 1841 min
Histogram: 4 0 0 5 1 2 1 1 1 1
Neighs:    0 ave 0 max 0 min
Histogram: 16 0 0 0 0 0 0 0 0 0
FullNghs:  18881.6 ave 20572 max 17131 min
Histogram: 1 0 2 2 3 2 2 2 1 1

Total # of neighbors = 302106
Ave neighs/atom = 302.106
Neighbor list builds = 1000
Dangerous builds not checked
Setting up Verlet run ...
  Unit style    : real
  Current step  : 18000
  Time step     : 1
Per MPI rank memory allocation (min/avg/max) = 4.577 | 4.578 | 4.579 Mbytes
Step Temp E_pair E_mol TotEng Press Volume Lx Ly Lz S/CPU 
   18000    305.20748   -10548.299            0   -9639.4431    20007.822    782.21148    9.2138555    9.2138555    9.2138555            0 
   18100    302.05703   -10540.443            0   -9640.9686     11481.79    781.46851    9.2109373    9.2109373    9.2109373    83.314466 
   18200    304.39956   -10547.124            0    -9640.674    7600.5104     781.6544    9.2116676    9.2116676    9.2116676    63.856487 
   18300    288.95976   -10500.181            0   -9639.7079   -3584.9885    782.10966    9.2134557    9.2134557    9.2134557    74.802387 
   18400    300.67857   -10536.744            0   -9641.3741   -6266.5594    782.25289    9.2140181    9.2140181    9.2140181    75.749673 
   18500    289.95341   -10503.566            0   -9640.1346    14974.172    782.17367     9.213707     9.213707     9.213707    60.188424 
   18600    294.78512   -10517.989            0   -9640.1688   -4735.8587    782.49182    9.2149561    9.2149561    9.2149561    74.512179 
   18700    303.09285   -10540.819            0   -9638.2604   -275.64347    783.17807    9.2176491    9.2176491    9.2176491    86.617354 
   18800     289.8276   -10498.822            0   -9635.7653   -2988.7787    783.88596    9.2204255    9.2204255    9.2204255    80.036517 
   18900    292.03839    -10503.15            0   -9633.5096   -2791.1565    784.21078    9.2216989    9.2216989    9.2216989    59.009999 
   19000    289.86927    -10491.76            0   -9628.5788   -3785.1544    784.40512    9.2224605    9.2224605    9.2224605    88.065703 
Loop time of 13.6609 on 16 procs for 1000 steps with 1000 atoms

Performance: 6.325 ns/day, 3.795 hours/ns, 73.202 timesteps/s
95.0% CPU use with 16 MPI tasks x no OpenMP threads

MPI task timing breakdown:
Section |  min time  |  avg time  |  max time  |%varavg| %total
---------------------------------------------------------------
Pair    | 1.9167     | 2.0218     | 2.1257     |   4.5 | 14.80
Neigh   | 0.75572    | 0.79845    | 0.83286    |   2.1 |  5.84
Comm    | 0.71735    | 0.86109    | 1.0114     |   8.7 |  6.30
Output  | 6.3433     | 6.5688     | 9.8965     |  33.5 | 48.08
Modify  | 0.07911    | 3.4015     | 3.6272     |  46.5 | 24.90
Other   |            | 0.009251   |            |       |  0.07

Nlocal:    62.5 ave 67 max 58 min
Histogram: 1 0 1 3 4 2 3 0 1 1
Nghost:    1861.5 ave 1875 max 1843 min
Histogram: 2 1 1 1 1 0 2 3 3 2
Neighs:    0 ave 0 max 0 min
Histogram: 16 0 0 0 0 0 0 0 0 0
FullNghs:  18828.2 ave 20436 max 17371 min
Histogram: 1 1 1 3 4 1 3 1 0 1

Total # of neighbors = 301252
Ave neighs/atom = 301.252
Neighbor list builds = 1000
Dangerous builds not checked
Setting up Verlet run ...
  Unit style    : real
  Current step  : 19000
  Time step     : 1
Per MPI rank memory allocation (min/avg/max) = 4.577 | 4.578 | 4.579 Mbytes
Step Temp E_pair E_mol TotEng Press Volume Lx Ly Lz S/CPU 
   19000    289.86927    -10491.76            0   -9628.5788   -3785.1544    784.40512    9.2224605    9.2224605    9.2224605            0 
   19100    302.34212   -10524.833            0   -9624.5099     760.2823     784.3517    9.2222512    9.2222512    9.2222512    86.839977 
   19200     301.8793   -10516.877            0   -9617.9322   -14786.574    784.21406    9.2217117    9.2217117    9.2217117    61.475868 
   19300    292.13339   -10480.249            0   -9610.3255    -8220.421     783.9185    9.2205531    9.2205531    9.2205531     78.77714 
   19400    300.21071   -10497.513            0   -9603.5372   -4431.5081    783.52095    9.2189941    9.2189941    9.2189941    81.411127 
   19500    293.08729   -10465.632            0   -9592.8686    9094.2321    783.36101    9.2183668    9.2183668    9.2183668    74.533752 
   19600    308.20056   -10502.196            0   -9584.4278   -35.857979    783.31915    9.2182026    9.2182026    9.2182026    59.597227 
   19700    300.78836   -10468.877            0    -9573.181    -2235.651    783.13377    9.2174753    9.2174753    9.2174753    82.676707 
   19800    300.40534   -10457.915            0    -9563.359    5451.2825    782.64437    9.2155549    9.2155549    9.2155549    84.527013 
   19900    305.80306   -10466.211            0   -9555.5822    12001.069    782.30725    9.2142315    9.2142315    9.2142315    60.739066 
   20000    308.72173   -10469.298            0   -9549.9778    7939.5166    782.35796    9.2144306    9.2144306    9.2144306    76.400158 
Loop time of 13.6434 on 16 procs for 1000 steps with 1000 atoms

Performance: 6.333 ns/day, 3.790 hours/ns, 73.295 timesteps/s
95.0% CPU use with 16 MPI tasks x no OpenMP threads

MPI task timing breakdown:
Section |  min time  |  avg time  |  max time  |%varavg| %total
---------------------------------------------------------------
Pair    | 1.862      | 1.9891     | 2.1078     |   5.7 | 14.58
Neigh   | 0.74568    | 0.78684    | 0.82975    |   2.3 |  5.77
Comm    | 0.71114    | 0.86605    | 1.0346     |  10.5 |  6.35
Output  | 6.4197     | 6.6427     | 9.9283     |  32.9 | 48.69
Modify  | 0.063811   | 3.3497     | 3.5729     |  46.4 | 24.55
Other   |            | 0.00914    |            |       |  0.07

Nlocal:    62.5 ave 69 max 56 min
Histogram: 1 0 2 4 0 3 4 0 0 2
Nghost:    1854.38 ave 1863 max 1840 min
Histogram: 2 0 0 1 2 1 3 2 2 3
Neighs:    0 ave 0 max 0 min
Histogram: 16 0 0 0 0 0 0 0 0 0
FullNghs:  18853 ave 20902 max 16778 min
Histogram: 1 0 3 3 0 3 4 0 0 2

Total # of neighbors = 301648
Ave neighs/atom = 301.648
Neighbor list builds = 1000
Dangerous builds not checked
Setting up Verlet run ...
  Unit style    : real
  Current step  : 20000
  Time step     : 1
Per MPI rank memory allocation (min/avg/max) = 4.577 | 4.578 | 4.579 Mbytes
Step Temp E_pair E_mol TotEng Press Volume Lx Ly Lz S/CPU 
   20000    308.72173   -10469.298            0   -9549.9778    7939.5166    782.35796    9.2144306    9.2144306    9.2144306            0 
   20100    304.23538   -10451.411            0   -9545.4498   -10061.314    782.48622    9.2149341    9.2149341    9.2149341    86.242007 
   20200    302.39109   -10443.783            0   -9543.3144    11113.223    782.61027     9.215421     9.215421     9.215421    54.976935 
   20300    304.82225   -10448.938            0   -9541.2295    2237.5246    783.23332    9.2178659    9.2178659    9.2178659    76.687607 
   20400     304.8685   -10450.149            0   -9542.3026    13589.042    784.23475    9.2217928    9.2217928    9.2217928    83.624399 
   20500    299.00032   -10435.645            0   -9545.2736   -4274.8633    785.89251    9.2282861    9.2282861    9.2282861    64.761945 
   20600    309.56925   -10470.912            0   -9549.0681    2860.9785    787.29956    9.2337902    9.2337902    9.2337902    67.172433 
   20700     298.6424   -10445.401            0   -9556.0946   -5170.4482    788.07041    9.2368028    9.2368028    9.2368028    71.883995 
   20800    305.76371   -10482.026            0   -9571.5137   -8177.2162    788.02988    9.2366445    9.2366445    9.2366445    77.881648 
   20900    301.65021    -10490.21            0   -9591.9472   -9139.1758     787.4414    9.2343447    9.2343447    9.2343447    69.210393 
   21000    284.85828   -10460.565            0   -9612.3056    -707.0612    786.17088    9.2293755    9.2293755    9.2293755    75.339709 
Loop time of 13.9585 on 16 procs for 1000 steps with 1000 atoms

Performance: 6.190 ns/day, 3.877 hours/ns, 71.641 timesteps/s
94.9% CPU use with 16 MPI tasks x no OpenMP threads

MPI task timing breakdown:
Section |  min time  |  avg time  |  max time  |%varavg| %total
---------------------------------------------------------------
Pair    | 1.8481     | 2.0001     | 2.144      |   6.2 | 14.33
Neigh   | 0.75446    | 0.79248    | 0.81303    |   2.2 |  5.68
Comm    | 0.67959    | 0.84318    | 1.0323     |  11.5 |  6.04
Output  | 6.4775     | 6.715      | 10.223     |  35.0 | 48.11
Modify  | 0.088816   | 3.5985     | 3.8366     |  47.8 | 25.78
Other   |            | 0.009227   |            |       |  0.07

Nlocal:    62.5 ave 67 max 58 min
Histogram: 1 0 2 1 5 3 1 1 1 1
Nghost:    1854.94 ave 1872 max 1835 min
Histogram: 1 0 3 1 2 1 3 2 1 2
Neighs:    0 ave 0 max 0 min
Histogram: 16 0 0 0 0 0 0 0 0 0
FullNghs:  18762 ave 20060 max 17179 min
Histogram: 1 0 2 1 3 2 4 0 1 2

Total # of neighbors = 300192
Ave neighs/atom = 300.192
Neighbor list builds = 1000
Dangerous builds not checked
Setting up Verlet run ...
  Unit style    : real
  Current step  : 21000
  Time step     : 1
Per MPI rank memory allocation (min/avg/max) = 4.577 | 4.578 | 4.579 Mbytes
Step Temp E_pair E_mol TotEng Press Volume Lx Ly Lz S/CPU 
   21000    284.85828   -10460.565            0   -9612.3056    -707.0612    786.17088    9.2293755    9.2293755    9.2293755            0 
   21100    290.89877    -10493.21            0   -9626.9633    1512.1641    784.48434     9.222771     9.222771     9.222771    76.841331 
   21200    297.07891   -10519.615            0   -9634.9646    4549.4754    782.49089    9.2149524    9.2149524    9.2149524    55.971188 
   21300    297.03963   -10523.719            0   -9639.1858    10181.532    780.67347    9.2078126    9.2078126    9.2078126    68.194354 
   21400    297.60888   -10528.321            0   -9642.0921    9558.1561    779.70969    9.2040219    9.2040219    9.2040219    89.349781 
   21500    284.63341   -10492.301            0   -9644.7114    11635.156    779.68001    9.2039051    9.2039051    9.2039051    74.434833 
   21600     289.8826   -10508.508            0   -9645.2872   -2060.7167    780.39321    9.2067106    9.2067106    9.2067106    66.136634 
   21700    294.51733   -10523.369            0   -9646.3469   -5948.8452    780.60226    9.2075327    9.2075327    9.2075327    79.566378 
   21800    299.88282   -10539.133            0   -9646.1332    15367.017    780.41358    9.2067908    9.2067908    9.2067908    75.688681 
   21900    299.93044   -10539.483            0   -9646.3409   -9101.3043    780.38866    9.2066927    9.2066927    9.2066927    59.361454 
   22000     291.8098   -10515.424            0   -9646.4638   -960.59215    780.11009    9.2055971    9.2055971    9.2055971    74.312476 
Loop time of 14.1374 on 16 procs for 1000 steps with 1000 atoms

Performance: 6.111 ns/day, 3.927 hours/ns, 70.734 timesteps/s
94.9% CPU use with 16 MPI tasks x no OpenMP threads

MPI task timing breakdown:
Section |  min time  |  avg time  |  max time  |%varavg| %total
---------------------------------------------------------------
Pair    | 1.928      | 2.0075     | 2.1354     |   4.0 | 14.20
Neigh   | 0.76795    | 0.79041    | 0.82326    |   1.7 |  5.59
Comm    | 0.70219    | 0.85193    | 0.94879    |   7.3 |  6.03
Output  | 6.9139     | 7.1363     | 10.417     |  31.7 | 50.48
Modify  | 0.059962   | 3.342      | 3.5646     |  46.4 | 23.64
Other   |            | 0.009211   |            |       |  0.07

Nlocal:    62.5 ave 69 max 57 min
Histogram: 2 1 2 1 2 5 0 1 0 2
Nghost:    1854.5 ave 1885 max 1820 min
Histogram: 1 1 0 3 2 2 3 3 0 1
Neighs:    0 ave 0 max 0 min
Histogram: 16 0 0 0 0 0 0 0 0 0
FullNghs:  18908.6 ave 20867 max 17132 min
Histogram: 1 2 2 1 2 3 2 1 0 2

Total # of neighbors = 302538
Ave neighs/atom = 302.538
Neighbor list builds = 1000
Dangerous builds not checked
Setting up Verlet run ...
  Unit style    : real
  Current step  : 22000
  Time step     : 1
Per MPI rank memory allocation (min/avg/max) = 4.577 | 4.578 | 4.579 Mbytes
Step Temp E_pair E_mol TotEng Press Volume Lx Ly Lz S/CPU 
   22000     291.8098   -10515.424            0   -9646.4638   -960.59215    780.11009    9.2055971    9.2055971    9.2055971            0 
   22100    290.10604   -10507.427            0    -9643.541    5131.6892    779.84486    9.2045537    9.2045537    9.2045537    87.815357 
   22200    293.01653    -10512.83            0    -9640.277    5003.5145    779.87353    9.2046666    9.2046666    9.2046666    58.037697 
   22300    295.70445   -10517.242            0    -9636.685   -11398.709    780.02116    9.2052473    9.2052473    9.2052473    74.569869 
   22400    305.27182   -10539.954            0   -9630.9067    1480.4042    779.94607    9.2049519    9.2049519    9.2049519    88.439169 
   22500    297.57013   -10510.006            0   -9623.8935    7808.0323    780.36499    9.2065997    9.2065997    9.2065997    60.675851 
   22600    296.99077   -10498.529            0   -9614.1414   -7262.8107    780.77413    9.2082084    9.2082084    9.2082084    69.015178 
   22700    305.70504   -10516.258            0   -9605.9209   -6476.1409    780.90764    9.2087332    9.2087332    9.2087332    79.065549 
   22800    300.63306   -10491.206            0   -9595.9721    4666.0069    781.13564    9.2096293    9.2096293    9.2096293    64.275616 
   22900    299.58808   -10478.846            0   -9586.7242    9006.8878    781.82053    9.2123202    9.2123202    9.2123202    69.705144 
   23000    319.92312   -10531.571            0    -9578.895   -5449.1085     782.6276     9.215489     9.215489     9.215489    89.941932 
Loop time of 13.7976 on 16 procs for 1000 steps with 1000 atoms

Performance: 6.262 ns/day, 3.833 hours/ns, 72.476 timesteps/s
94.9% CPU use with 16 MPI tasks x no OpenMP threads

MPI task timing breakdown:
Section |  min time  |  avg time  |  max time  |%varavg| %total
---------------------------------------------------------------
Pair    | 1.788      | 2.0128     | 2.1143     |   6.0 | 14.59
Neigh   | 0.72502    | 0.79344    | 0.82355    |   2.9 |  5.75
Comm    | 0.73114    | 0.85678    | 1.1504     |  11.8 |  6.21
Output  | 6.3469     | 6.5808     | 10.035     |  34.8 | 47.70
Modify  | 0.089915   | 3.5444     | 3.7788     |  47.4 | 25.69
Other   |            | 0.00944    |            |       |  0.07

Nlocal:    62.5 ave 68 max 57 min
Histogram: 1 2 3 1 0 3 2 0 2 2
Nghost:    1855.06 ave 1874 max 1837 min
Histogram: 1 2 1 1 3 3 2 2 0 1
Neighs:    0 ave 0 max 0 min
Histogram: 16 0 0 0 0 0 0 0 0 0
FullNghs:  18865.4 ave 20447 max 17077 min
Histogram: 1 2 1 2 1 0 5 1 1 2

Total # of neighbors = 301846
Ave neighs/atom = 301.846
Neighbor list builds = 1000
Dangerous builds not checked
Setting up Verlet run ...
  Unit style    : real
  Current step  : 23000
  Time step     : 1
Per MPI rank memory allocation (min/avg/max) = 4.577 | 4.578 | 4.579 Mbytes
Step Temp E_pair E_mol TotEng Press Volume Lx Ly Lz S/CPU 
   23000    319.92312   -10531.571            0    -9578.895   -5449.1085     782.6276     9.215489     9.215489     9.215489            0 
   23100    311.89735   -10500.297            0   -9571.5201   -4267.8984    783.31809    9.2181984    9.2181984    9.2181984     72.13581 
   23200    303.52742   -10469.481            0   -9565.6284    -1520.638    783.87767     9.220393     9.220393     9.220393      60.8332 
   23300    306.74309    -10475.34            0   -9561.9117    10598.656    784.20085    9.2216599    9.2216599    9.2216599    74.425169 
   23400    312.69537   -10492.007            0   -9560.8538   -10070.832    784.53552    9.2229716    9.2229716    9.2229716    59.105664 
   23500    303.97739   -10464.781            0   -9559.5886    11251.061    784.90885    9.2244343    9.2244343    9.2244343    78.029997 
   23600    311.34898   -10489.631            0   -9562.4872    526.52044    785.95605    9.2285348    9.2285348    9.2285348    72.278732 
   23700    307.40431   -10481.588            0   -9566.1901   -20117.041    787.05013    9.2328149    9.2328149    9.2328149    87.764936 
   23800    313.04573   -10505.114            0   -9572.9174   -7019.2944    787.50769    9.2346038    9.2346038    9.2346038    67.367273 
   23900    292.22591   -10450.022            0   -9579.8227   -9021.6335    787.56078    9.2348113    9.2348113    9.2348113    71.142112 
   24000    287.98726   -10449.487            0   -9591.9098   -15783.107    787.03948    9.2327733    9.2327733    9.2327733    88.621334 
Loop time of 13.8886 on 16 procs for 1000 steps with 1000 atoms

Performance: 6.221 ns/day, 3.858 hours/ns, 72.002 timesteps/s
94.9% CPU use with 16 MPI tasks x no OpenMP threads

MPI task timing breakdown:
Section |  min time  |  avg time  |  max time  |%varavg| %total
---------------------------------------------------------------
Pair    | 1.8723     | 1.9914     | 2.1486     |   5.1 | 14.34
Neigh   | 0.75221    | 0.78722    | 0.81236    |   2.1 |  5.67
Comm    | 0.65006    | 0.83185    | 0.9837     |   9.6 |  5.99
Output  | 6.6764     | 6.9019     | 10.228     |  32.7 | 49.70
Modify  | 0.041391   | 3.367      | 3.592      |  46.8 | 24.24
Other   |            | 0.00916    |            |       |  0.07

Nlocal:    62.5 ave 70 max 57 min
Histogram: 1 4 1 3 0 2 2 2 0 1
Nghost:    1849.44 ave 1863 max 1835 min
Histogram: 1 0 1 1 5 4 2 0 1 1
Neighs:    0 ave 0 max 0 min
Histogram: 16 0 0 0 0 0 0 0 0 0
FullNghs:  18739.5 ave 21027 max 17051 min
Histogram: 1 4 1 2 1 4 0 2 0 1

Total # of neighbors = 299832
Ave neighs/atom = 299.832
Neighbor list builds = 1000
Dangerous builds not checked
Setting up Verlet run ...
  Unit style    : real
  Current step  : 24000
  Time step     : 1
Per MPI rank memory allocation (min/avg/max) = 4.577 | 4.578 | 4.579 Mbytes
Step Temp E_pair E_mol TotEng Press Volume Lx Ly Lz S/CPU 
   24000    287.98726   -10449.487            0   -9591.9098   -15783.107    787.03948    9.2327733    9.2327733    9.2327733            0 
   24100    291.50083   -10476.271            0   -9608.2313   -942.94573    785.78877      9.22788      9.22788      9.22788     64.00663 
   24200    290.93951   -10493.092            0   -9626.7241    2440.9088    784.10024    9.2212656    9.2212656    9.2212656    71.125134 
   24300    298.71221   -10532.488            0   -9642.9742   -8993.0442      781.959     9.212864     9.212864     9.212864    92.802313 
   24400    299.89436   -10547.201            0   -9654.1669    2072.2061    779.22318    9.2021072    9.2021072    9.2021072    62.013406 
   24500    298.62967   -10548.194            0   -9658.9256    13305.369    776.24438    9.1903663    9.1903663    9.1903663    85.104663 
   24600    285.81453   -10512.306            0   -9661.1994    21202.538    773.94022    9.1812639    9.1812639    9.1812639    67.170158 
   24700    297.22209   -10547.447            0   -9662.3701    20728.068    772.76878    9.1766293    9.1766293    9.1766293    76.642069 
   24800    289.55236   -10523.367            0   -9661.1291    16197.987    772.98875    9.1774999    9.1774999    9.1774999    69.355692 
   24900    296.82149   -10545.364            0   -9661.4803    5681.9384    774.49952    9.1834751    9.1834751    9.1834751    81.538904 
   25000    301.92097   -10558.992            0    -9659.923    13649.482    777.09628    9.1937271    9.1937271    9.1937271    78.390358 
Loop time of 13.5709 on 16 procs for 1000 steps with 1000 atoms

Performance: 6.367 ns/day, 3.770 hours/ns, 73.687 timesteps/s
95.0% CPU use with 16 MPI tasks x no OpenMP threads

MPI task timing breakdown:
Section |  min time  |  avg time  |  max time  |%varavg| %total
---------------------------------------------------------------
Pair    | 1.9242     | 2.0343     | 2.2276     |   5.5 | 14.99
Neigh   | 0.75556    | 0.79358    | 0.85012    |   2.6 |  5.85
Comm    | 0.62209    | 0.87119    | 1.0181     |  10.5 |  6.42
Output  | 6.4053     | 6.6199     | 9.7823     |  31.7 | 48.78
Modify  | 0.081685   | 3.2423     | 3.4564     |  45.3 | 23.89
Other   |            | 0.009629   |            |       |  0.07

Nlocal:    62.5 ave 66 max 58 min
Histogram: 1 1 1 3 0 1 3 3 1 2
Nghost:    1864.31 ave 1877 max 1854 min
Histogram: 2 0 2 4 2 1 2 1 0 2
Neighs:    0 ave 0 max 0 min
Histogram: 16 0 0 0 0 0 0 0 0 0
FullNghs:  19001.4 ave 20159 max 17570 min
Histogram: 2 0 1 3 1 1 2 3 1 2

Total # of neighbors = 304022
Ave neighs/atom = 304.022
Neighbor list builds = 1000
Dangerous builds not checked
Setting up Verlet run ...
  Unit style    : real
  Current step  : 25000
  Time step     : 1
Per MPI rank memory allocation (min/avg/max) = 4.577 | 4.578 | 4.579 Mbytes
Step Temp E_pair E_mol TotEng Press Volume Lx Ly Lz S/CPU 
   25000    301.92097   -10558.992            0    -9659.923    13649.482    777.09628    9.1937271    9.1937271    9.1937271            0 
   25100    291.32075   -10524.766            0   -9657.2622    17646.644    780.45977    9.2069724    9.2069724    9.2069724    53.858978 
   25200    305.10873   -10564.484            0   -9655.9226   -10702.987    784.08804    9.2212177    9.2212177    9.2212177     71.37904 
   25300    291.77726   -10521.107            0   -9652.2439   -15216.446    787.28146    9.2337195    9.2337195    9.2337195    77.703212 
   25400    288.83166   -10506.928            0   -9646.8368   -5301.5362     789.6997     9.243164     9.243164     9.243164    73.107005 
   25500    294.73732   -10517.272            0   -9639.5946   -7301.2816    791.48083    9.2501079    9.2501079    9.2501079    87.648911 
   25600    306.95967   -10544.978            0    -9630.905   -14348.981    792.24923    9.2531004    9.2531004    9.2531004    81.611404 
   25700    308.63815   -10540.899            0   -9621.8269   -19587.223    791.60538    9.2505931    9.2505931    9.2505931     59.53593 
   25800    299.54496    -10505.04            0   -9613.0461   -14394.203    789.57339    9.2426712    9.2426712    9.2426712    75.342816 
   25900    304.99777   -10512.852            0   -9604.6209   -23667.417    786.71157    9.2314909    9.2314909    9.2314909    72.509773 
   26000    316.06789    -10539.89            0   -9598.6943   -11483.337    782.92469     9.216655     9.216655     9.216655    62.170777 
Loop time of 14.2733 on 16 procs for 1000 steps with 1000 atoms

Performance: 6.053 ns/day, 3.965 hours/ns, 70.061 timesteps/s
94.9% CPU use with 16 MPI tasks x no OpenMP threads

MPI task timing breakdown:
Section |  min time  |  avg time  |  max time  |%varavg| %total
---------------------------------------------------------------
Pair    | 1.8466     | 1.9547     | 2.0473     |   4.7 | 13.69
Neigh   | 0.74745    | 0.77856    | 0.80543    |   2.0 |  5.45
Comm    | 0.7337     | 0.83687    | 0.97472    |   8.8 |  5.86
Output  | 7.1082     | 7.3322     | 10.636     |  31.5 | 51.37
Modify  | 0.058235   | 3.3619     | 3.5865     |  46.5 | 23.55
Other   |            | 0.009111   |            |       |  0.06

Nlocal:    62.5 ave 68 max 54 min
Histogram: 1 0 0 1 3 3 1 4 1 2
Nghost:    1853.62 ave 1883 max 1835 min
Histogram: 1 3 2 4 2 1 2 0 0 1
Neighs:    0 ave 0 max 0 min
Histogram: 16 0 0 0 0 0 0 0 0 0
FullNghs:  18839.6 ave 20756 max 16161 min
Histogram: 1 0 0 3 2 2 2 3 2 1

Total # of neighbors = 301434
Ave neighs/atom = 301.434
Neighbor list builds = 1000
Dangerous builds not checked
Setting up Verlet run ...
  Unit style    : real
  Current step  : 26000
  Time step     : 1
Per MPI rank memory allocation (min/avg/max) = 4.577 | 4.578 | 4.579 Mbytes
Step Temp E_pair E_mol TotEng Press Volume Lx Ly Lz S/CPU 
   26000    316.06789    -10539.89            0   -9598.6943   -11483.337    782.92469     9.216655     9.216655     9.216655            0 
   26100     311.0083   -10516.721            0   -9590.5915    23353.442    778.67081    9.1999323    9.1999323    9.1999323    72.263217 
   26200    304.10268   -10491.046            0   -9585.4805    15442.513    775.23639    9.1863866    9.1863866    9.1863866    80.103206 
   26300    311.38103   -10512.034            0   -9584.7949    25362.649    772.56823    9.1758354    9.1758354    9.1758354    65.389423 
   26400    309.26047   -10507.094            0   -9586.1687    22230.673    771.18922    9.1703726    9.1703726    9.1703726    69.267469 
   26500    303.70714   -10492.819            0   -9588.4315    6236.8208    770.93723    9.1693737    9.1693737    9.1693737    77.167671 
   26600    304.49675   -10498.247            0   -9591.5077    24456.825    771.57545    9.1719033    9.1719033    9.1719033    68.634381 
   26700    298.79468    -10486.16            0      -9596.4    13185.151    773.50471    9.1795415    9.1795415    9.1795415    72.018711 
   26800    299.29054   -10493.141            0   -9601.9052    5850.8337    776.34291    9.1907552    9.1907552    9.1907552    79.525509 
   26900    292.01795   -10475.502            0   -9605.9226    9854.3287    780.18661    9.2058981    9.2058981    9.2058981    58.765274 
   27000    292.31001   -10479.513            0   -9609.0635   -11231.438    784.59091    9.2231886    9.2231886    9.2231886    74.108844 
Loop time of 14.0551 on 16 procs for 1000 steps with 1000 atoms

Performance: 6.147 ns/day, 3.904 hours/ns, 71.148 timesteps/s
94.9% CPU use with 16 MPI tasks x no OpenMP threads

MPI task timing breakdown:
Section |  min time  |  avg time  |  max time  |%varavg| %total
---------------------------------------------------------------
Pair    | 1.9112     | 2.0197     | 2.1786     |   5.0 | 14.37
Neigh   | 0.75257    | 0.78616    | 0.83271    |   2.3 |  5.59
Comm    | 0.69569    | 0.89971    | 1.0334     |   9.3 |  6.40
Output  | 6.9588     | 7.1691     | 10.268     |  29.9 | 51.01
Modify  | 0.071066   | 3.1713     | 3.3844     |  45.0 | 22.56
Other   |            | 0.0092     |            |       |  0.07

Nlocal:    62.5 ave 69 max 59 min
Histogram: 4 1 2 2 2 1 1 1 0 2
Nghost:    1854.69 ave 1875 max 1836 min
Histogram: 1 1 2 3 1 4 1 0 2 1
Neighs:    0 ave 0 max 0 min
Histogram: 16 0 0 0 0 0 0 0 0 0
FullNghs:  18815.5 ave 20774 max 17639 min
Histogram: 4 1 2 2 2 1 1 1 0 2

Total # of neighbors = 301048
Ave neighs/atom = 301.048
Neighbor list builds = 1000
Dangerous builds not checked
Setting up Verlet run ...
  Unit style    : real
  Current step  : 27000
  Time step     : 1
Per MPI rank memory allocation (min/avg/max) = 4.577 | 4.578 | 4.579 Mbytes
Step Temp E_pair E_mol TotEng Press Volume Lx Ly Lz S/CPU 
   27000    292.31001   -10479.513            0   -9609.0635   -11231.438    784.59091    9.2231886    9.2231886    9.2231886            0 
   27100    287.99047   -10470.022            0   -9612.4358   -9599.9553    788.59716    9.2388604    9.2388604    9.2388604    86.719358 
   27200    294.40997   -10491.421            0   -9614.7184   -1425.9242     792.1807    9.2528336    9.2528336    9.2528336    83.453915 
   27300    286.17841   -10468.392            0   -9616.2019   -7477.2945    795.45501    9.2655643    9.2655643    9.2655643    63.552061 
   27400    291.42967   -10484.912            0   -9617.0844   -22227.983    797.98785    9.2753881    9.2753881    9.2753881     70.99515 
   27500    294.26175   -10493.727            0   -9617.4657   -23845.742    799.11402    9.2797494    9.2797494    9.2797494    76.148009 
   27600    296.14231   -10497.887            0   -9616.0256   -18135.854    798.86381    9.2787808    9.2787808    9.2787808    57.724202 
   27700    293.15755   -10488.337            0   -9615.3639   -19747.715    796.87115    9.2710595    9.2710595    9.2710595    86.901468 
   27800    304.47704   -10519.044            0    -9612.363   -16693.367    793.42102    9.2576601    9.2576601    9.2576601    72.374957 
   27900    291.32103   -10473.455            0   -9605.9508    -834.7273    789.65989    9.2430087    9.2430087    9.2430087    64.329607 
   28000    304.65198   -10506.114            0   -9598.9122    -3422.325    785.96285    9.2285614    9.2285614    9.2285614    72.134692 
Loop time of 13.8523 on 16 procs for 1000 steps with 1000 atoms

[...]
  987700    306.06466    -11265.68            0   -10354.272     11393.61    771.08213    9.1699481    9.1699481    9.1699481    85.899372 
  987800    314.64611   -11287.278            0   -10350.316    13503.401    771.18457    9.1703542    9.1703542    9.1703542    70.102171 
  987900    311.52823   -11276.653            0   -10348.975    11753.408    772.38206    9.1750983    9.1750983    9.1750983     99.77917 
  988000    309.28601   -11269.928            0   -10348.927    3523.1929    774.43387    9.1832156    9.1832156    9.1832156    91.168225 
  988100    316.05275   -11293.029            0   -10351.878   -5401.7949    776.62181    9.1918556    9.1918556    9.1918556    66.422006 
  988200    296.84473   -11236.928            0   -10352.976    -9589.925    778.51853    9.1993325    9.1993325    9.1993325    87.082627 
  988300    300.86741   -11251.102            0    -10355.17   -10765.683    779.62152     9.203675     9.203675     9.203675    78.644576 
  988400    310.58083   -11283.707            0    -10358.85   -10766.622    779.84762    9.2045646    9.2045646    9.2045646    63.090412 
  988500    309.05007   -11283.381            0   -10363.083    1717.0262    779.12039    9.2017025    9.2017025    9.2017025    71.413326 
  988600     302.4333    -11266.94            0   -10366.346   -14992.494    777.74111    9.1962694    9.1962694    9.1962694    86.902587 
  988700    301.18925   -11268.483            0   -10371.593   -4301.1952    775.73368    9.1883504    9.1883504    9.1883504    73.876485 
  988800    316.51255   -11319.982            0   -10377.461    1070.8658    773.55666     9.179747     9.179747     9.179747    65.508732 
  988900    302.53366   -11282.717            0   -10381.823    8295.2213    771.64307    9.1721712    9.1721712    9.1721712     91.73194 
  989000    302.51776   -11289.365            0   -10388.518    11062.263    770.46201    9.1674893    9.1674893    9.1674893    88.002505 
  989100    302.98813   -11298.554            0   -10396.307     19907.84    770.40425    9.1672602    9.1672602    9.1672602     71.04715 
  989200    313.66051   -11339.796            0   -10405.769    10222.206    771.44462    9.1713849    9.1713849    9.1713849    77.308625 
  989300    305.55966   -11322.635            0    -10412.73     7700.715    773.41531    9.1791878    9.1791878    9.1791878    57.915218 
  989400    296.93231   -11303.617            0   -10419.404   -983.95667    775.91217    9.1890551    9.1890551    9.1890551    78.748891 
  989500     296.2183   -11307.666            0   -10425.578   -10473.545    778.15792     9.197912     9.197912     9.197912    90.389171 
  989600    292.34829   -11300.339            0   -10429.776   -14655.418    779.56711    9.2034608    9.2034608    9.2034608    61.151155 
  989700    285.78141   -11283.008            0       -10432   -11754.633    779.75945    9.2042177    9.2042177    9.2042177    90.426914 
  989800    298.67986   -11322.366            0   -10432.949   -12394.502    778.67974    9.1999675    9.1999675    9.1999675    77.139065 
  989900     298.7614   -11324.134            0   -10434.474   -9277.1384    776.62055    9.1918507    9.1918507    9.1918507    56.940582 
  990000    290.96581   -11300.063            0   -10433.616     5195.118    773.99249    9.1814706    9.1814706    9.1814706    69.782869 
  990100    308.95396   -11351.883            0   -10431.871    7706.6657    771.41373    9.1712624    9.1712624    9.1712624    74.594758 
  990200    297.79522   -11314.689            0   -10427.906    14229.323    769.48297    9.1636045    9.1636045    9.1636045    68.176124 
  990300     305.8843    -11336.14            0   -10425.269    20757.363    768.65052    9.1602988    9.1602988    9.1602988    91.217654 
  990400    292.19338   -11289.412            0    -10419.31    16388.289    769.24717    9.1626684    9.1626684    9.1626684    66.130451 
  990500    293.59677   -11286.223            0   -10411.942    11398.962     770.9478    9.1694156    9.1694156    9.1694156    65.637658 
  990600     294.0795   -11272.907            0   -10397.189    -483.1799    773.55615    9.1797449    9.1797449    9.1797449    70.582179 
  990700    300.71845   -11271.756            0   -10376.267   -4365.9398    776.42118     9.191064     9.191064     9.191064     92.06854 
  990800    306.63485   -11269.964            0   -10356.858   -8717.8928    778.88011    9.2007565    9.2007565    9.2007565    61.180459 
  990900    304.28094   -11248.154            0   -10342.057   -17004.628    780.56838    9.2073995    9.2073995    9.2073995    78.234022 
  991000     304.5892   -11240.085            0   -10333.071   -14662.876    781.28582    9.2102195    9.2102195    9.2102195    82.246762 
  991100    304.76368   -11235.596            0   -10328.061   -16953.928     780.7369     9.208062     9.208062     9.208062    70.906481 
  991200    306.30729   -11239.127            0   -10326.996   -8642.4845    779.09509     9.201603     9.201603     9.201603    89.512283 
  991300    308.09495   -11246.601            0   -10329.147    5150.7143    776.67787    9.1920768    9.1920768    9.1920768    85.345401 
  991400    310.94222   -11257.614            0   -10331.681    10891.182    774.08598    9.1818403    9.1818403    9.1818403    61.834204 
  991500    308.55757   -11257.111            0   -10338.279    17643.586    771.92713    9.1732966    9.1732966    9.1732966    77.774287 
  991600    308.95433   -11265.041            0   -10345.028    23783.288     770.7159    9.1684961    9.1684961    9.1684961    94.500848 
  991700    307.85165   -11272.497            0   -10355.768    14330.358    770.75521     9.168652     9.168652     9.168652    65.455971 
  991800      314.351   -11303.528            0   -10367.445    8321.7133    771.89976    9.1731882    9.1731882    9.1731882    76.603149 
  991900    310.33955   -11302.597            0   -10378.459     13667.27    773.94813    9.1812952    9.1812952    9.1812952     84.65938 
  992000    300.63812   -11282.731            0   -10387.482   -19574.276    776.34915    9.1907798    9.1907798    9.1907798     72.08966 
  992100    301.78935   -11293.931            0   -10395.253   -5860.4042    778.10179    9.1976908    9.1976908    9.1976908    77.947248 
  992200     297.3756   -11287.825            0   -10402.292   -11802.608    779.01267    9.2012784    9.2012784    9.2012784    83.926198 
  992300    298.69215   -11296.274            0    -10406.82   -16853.583    778.96429     9.201088     9.201088     9.201088    57.671739 
  992400    300.45899   -11305.732            0   -10411.016   -15091.396     777.9606    9.1971344    9.1971344    9.1971344    77.358107 
  992500    300.40889   -11309.636            0   -10415.069   -2954.5421    776.06417    9.1896551    9.1896551    9.1896551    69.262752 
  992600    307.67131   -11333.475            0   -10417.282    1222.7655    773.87754    9.1810161    9.1810161    9.1810161     55.80987 
  992700    305.49406    -11328.58            0   -10418.871    7495.8452    771.75727    9.1726237    9.1726237    9.1726237    73.118117 
  992800    292.93084   -11291.492            0   -10419.194    15389.934    770.22924     9.166566     9.166566     9.166566    60.254825 
  992900    298.56864   -11309.166            0   -10420.079    27622.691    769.67714    9.1643752    9.1643752    9.1643752    54.221142 
  993000    305.36522    -11331.52            0   -10422.195    11612.578    770.40438    9.1672607    9.1672607    9.1672607    68.321532 
  993100     294.3837   -11298.214            0   -10421.589    7954.7348    772.30961    9.1748114    9.1748114    9.1748114    66.573706 
  993200     276.9203   -11245.865            0   -10421.244   -6754.5329    774.83309    9.1847933    9.1847933    9.1847933    68.848063 
  993300    306.16162   -11334.127            0    -10422.43   -17797.815    777.28792    9.1944828    9.1944828    9.1944828    78.075678 
  993400    305.42389   -11330.101            0   -10420.601   -15469.334    779.04853    9.2014196    9.2014196    9.2014196    67.260193 
  993500    295.53087   -11295.807            0   -10415.766   -8892.5927    779.89567    9.2047537    9.2047537    9.2047537    64.988583 
  993600    300.27719   -11302.938            0   -10408.764   -24479.475    779.43063    9.2029237    9.2029237    9.2029237    69.272407 
  993700    295.92828   -11279.487            0   -10398.263   -10659.674    777.64442    9.1958883    9.1958883    9.1958883    62.176562 
  993800    299.60894   -11277.753            0   -10385.569   -10931.275    775.13829    9.1859991    9.1859991    9.1859991    71.339383 
  993900    303.36408   -11274.797            0    -10371.43     16371.24    772.35236    9.1749807    9.1749807    9.1749807    73.045787 
  994000    295.62442   -11238.507            0   -10358.188    17915.555     770.2496    9.1666467    9.1666467    9.1666467    58.755621 
  994100    320.01449   -11303.409            0    -10350.46    26871.512     769.3001    9.1628785    9.1628785    9.1628785    65.762155 
  994200    312.65249   -11275.374            0   -10344.349    19400.683    769.90711    9.1652879    9.1652879    9.1652879    75.222941 
  994300     313.5169   -11276.622            0   -10343.022     7638.474    771.91368    9.1732433    9.1732433    9.1732433    58.348344 
  994400    305.14095   -11251.092            0   -10342.434   -4827.1313    774.68034    9.1841897    9.1841897    9.1841897    74.323663 
  994500    310.75769   -11268.822            0   -10343.439   -4233.7517    777.79547    9.1964837    9.1964837    9.1964837    68.131624 
  994600    318.59911   -11296.035            0   -10347.301   -17052.479    780.58824    9.2074775    9.2074775    9.2074775    64.272096 
  994700     301.9425   -11248.947            0   -10349.814   -20063.781     782.3794    9.2145147    9.2145147    9.2145147    70.682556 
  994800    304.09237   -11261.454            0   -10355.919   -27784.043    782.59775    9.2153719    9.2153719    9.2153719    61.720374 
  994900    294.23575   -11238.483            0   -10362.299   -14502.235    781.20872    9.2099165    9.2099165    9.2099165    67.581828 
  995000    295.53496    -11252.04            0   -10371.987   -12060.754    778.58618     9.199599     9.199599     9.199599    65.962255 
  995100    304.37521   -11288.267            0    -10381.89   -2622.8816     775.3124    9.1866868    9.1866868    9.1866868    57.534673 
  995200    310.29797   -11317.323            0   -10393.308    9012.2707    771.96572    9.1734494    9.1734494    9.1734494    86.708688 
  995300    303.02876   -11304.858            0    -10402.49    25595.252    769.40458    9.1632933    9.1632933    9.1632933    89.739499 
  995400    295.53047   -11291.073            0   -10411.034    17909.608    768.18694    9.1584569    9.1584569    9.1584569    52.768569 
  995500    295.86129   -11300.911            0   -10419.887    23263.909    768.61126    9.1601429    9.1601429    9.1601429    86.609642 
  995600    288.92634   -11285.508            0   -10425.135     16057.29    770.64555    9.1682172    9.1682172    9.1682172    83.891503 
  995700    286.68246   -11282.878            0   -10429.186   -334.14682    773.70356     9.180328     9.180328     9.180328    74.265461 
  995800    293.90346   -11306.208            0   -10431.014    -7858.271    777.07954    9.1936611    9.1936611    9.1936611    78.363145 
  995900    305.03917   -11339.107            0   -10430.752   -23199.055    779.93119    9.2048934    9.2048934    9.2048934    84.939335 
  996000    307.38202   -11344.511            0   -10429.179   -18699.713    781.29223    9.2102447    9.2102447    9.2102447    80.883724 
  996100    295.90103   -11307.992            0    -10426.85   -27475.263    780.92113    9.2087862    9.2087862    9.2087862    75.100651 
  996200    293.07998    -11296.21            0   -10423.467   -16475.605    778.92944    9.2009507    9.2009507    9.2009507    74.160969 
  996300    294.39147   -11296.427            0    -10419.78    286.49098    775.80482    9.1886313    9.1886313    9.1886313    74.894506 
  996400    295.34755   -11294.963            0   -10415.468    15182.003    772.15384    9.1741945    9.1741945    9.1741945    67.775069 
  996500    302.93554   -11313.431            0   -10411.341    18902.996    768.84995     9.161091     9.161091     9.161091    90.809747 
  996600    308.31285   -11325.693            0    -10407.59    31319.901     766.6799    9.1524639    9.1524639    9.1524639    74.269973 
  996700    301.03627    -11300.61            0   -10404.176    27426.132    766.41397    9.1514056    9.1514056    9.1514056    70.611489 
  996800     305.4853   -11312.531            0   -10402.848    26039.472    768.25912    9.1587438    9.1587438    9.1587438    98.255818 
  996900    301.27811   -11298.577            0   -10401.422    1966.6621    771.71588    9.1724597    9.1724597    9.1724597    61.262981 
  997000    305.44859   -11309.074            0     -10399.5    -3442.607    775.81127    9.1886568    9.1886568    9.1886568    84.146979 
  997100    303.99675   -11302.553            0   -10397.303   -13066.236    779.64638    9.2037728    9.2037728    9.2037728    82.562846 
  997200    304.27453   -11299.675            0   -10393.597   -28226.231    782.31427     9.214259     9.214259     9.214259     58.68376 
  997300    304.50999   -11297.508            0   -10390.729    -24782.72    783.25669    9.2179576    9.2179576    9.2179576    56.712225 
  997400    301.22484    -11282.74            0   -10385.744   -19186.906    782.45388    9.2148071    9.2148071    9.2148071    83.174393 
  997500    302.00727   -11280.442            0   -10381.116   -17704.102    780.13443    9.2056929    9.2056929    9.2056929    56.376786 
  997600    301.79678   -11272.229            0   -10373.529   -13494.104    776.93184    9.1930786    9.1930786    9.1930786    67.995818 
  997700    299.36521   -11256.124            0   -10364.665    17941.702    773.39229    9.1790967    9.1790967    9.1790967    71.769125 
  997800    296.84497   -11237.687            0   -10353.734    22711.986    770.49956    9.1676382    9.1676382    9.1676382    59.541155 
  997900    301.39596   -11240.651            0   -10343.146    21150.096    769.02469     9.161785     9.161785     9.161785    87.244189 
  998000    309.80546    -11258.07            0   -10335.522    30012.726    769.32874    9.1629923    9.1629923    9.1629923    78.058673 
  998100    304.44107   -11236.864            0    -10330.29    7155.8955    771.36173    9.1710564    9.1710564    9.1710564    62.572665 
  998200    306.44699   -11240.365            0   -10327.818    11411.717    774.43535    9.1832214    9.1832214    9.1832214    75.386096 
  998300    311.53885   -11253.888            0   -10326.178   -668.51825    777.84405    9.1966751    9.1966751    9.1966751    64.767967 
  998400    314.66966   -11264.897            0   -10327.865   -22440.439    780.75647     9.208139     9.208139     9.208139    79.039262 
  998500    307.99748   -11247.787            0   -10330.623   -24484.055    782.40118    9.2146003    9.2146003    9.2146003    83.213294 
  998600    302.05473   -11236.792            0   -10337.324   -25170.209     782.5571    9.2152123    9.2152123    9.2152123    73.742817 
  998700    298.62216   -11236.811            0   -10347.565   -23815.388    781.25376    9.2100935    9.2100935    9.2100935     67.08539 
  998800    313.55809   -11294.429            0   -10360.706   -14129.839    778.76776    9.2003141    9.2003141    9.2003141    83.929434 
  998900    310.41953   -11299.915            0   -10375.539    -2709.555    775.67799    9.1881305    9.1881305    9.1881305    69.435842 
  999000    303.30299   -11290.803            0   -10387.619    9141.3663    772.87454     9.177048     9.177048     9.177048    66.933879 
  999100    302.34238   -11298.191            0   -10397.867    12069.018     770.8488    9.1690231    9.1690231    9.1690231    86.425483 
  999200    300.53032    -11300.66            0   -10405.732    6059.5695    769.82032    9.1649435    9.1649435    9.1649435      77.3489 
  999300    294.09179   -11287.338            0   -10411.582        20601    769.94954    9.1654562    9.1654562    9.1654562    78.820859 
  999400    298.07611   -11303.242            0   -10415.622    10143.283    771.17798    9.1703281    9.1703281    9.1703281    76.708181 
  999500    301.14859   -11315.017            0   -10418.248   -4571.0681    772.97713     9.177454     9.177454     9.177454    70.491209 
  999600     298.8668     -11310.2            0   -10420.225   -6842.5029    774.89129    9.1850233    9.1850233    9.1850233    71.042825 
  999700    294.73557   -11297.916            0   -10420.244   -8202.6711    776.35799    9.1908147    9.1908147    9.1908147    72.031028 
  999800    287.79409   -11276.704            0   -10419.702   -8294.0645    777.22206    9.1942231    9.1942231    9.1942231    82.812228 
  999900    293.72972   -11293.982            0   -10419.305   -11015.201    777.35048    9.1947295    9.1947295    9.1947295    58.567411 
 1000000    297.97275   -11303.863            0   -10416.551   -8369.2632    776.79474    9.1925378    9.1925378    9.1925378    81.081011 
 1000100    297.47665   -11299.516            0   -10413.682   -2828.3963    775.86545    9.1888707    9.1888707    9.1888707    73.554536 
 1000200    303.20303   -11313.563            0   -10410.676    3557.0213    774.90533    9.1850787    9.1850787    9.1850787    67.788536 
 1000300    289.69146   -11268.013            0   -10405.362    9441.2858    774.24435    9.1824664    9.1824664    9.1824664    68.530741 
 1000400    296.29384   -11282.211            0   -10399.899    10540.195    773.72143    9.1803987    9.1803987    9.1803987    60.802596 
 1000500     290.1889   -11258.347            0   -10394.214    682.00018    773.32786    9.1788418    9.1788418    9.1788418     76.32564 
 1000600    306.10244   -11298.881            0   -10387.361     3312.656    773.24145    9.1784999    9.1784999    9.1784999    83.172524 
 1000700    303.66738   -11283.407            0   -10379.137   -3441.9569    773.50114    9.1795273    9.1795273    9.1795273    67.311419 
 1000800    305.88787     -11281.6            0   -10370.718    8417.6349    773.92773    9.1812145    9.1812145    9.1812145    82.789903 
 1000900     318.0928   -11308.311            0   -10361.085    6117.5009    774.65268    9.1840804    9.1840804    9.1840804    89.418484 
 1001000    316.94971   -11293.572            0    -10349.75     5939.094    775.69606    9.1882019    9.1882019    9.1882019    92.567862 
Loop time of 1437.06 on 16 procs for 100000 steps with 1000 atoms

Performance: 6.012 ns/day, 3.992 hours/ns, 69.587 timesteps/s
94.8% CPU use with 16 MPI tasks x no OpenMP threads

MPI task timing breakdown:
Section |  min time  |  avg time  |  max time  |%varavg| %total
---------------------------------------------------------------
Pair    | 178.77     | 185.72     | 191.63     |  25.4 | 12.92
Neigh   | 75.938     | 78.388     | 80.555     |  15.6 |  5.45
Comm    | 71.913     | 80.02      | 89.485     |  50.7 |  5.57
Output  | 724.06     | 747.07     | 1086       | 320.2 | 51.99
Modify  | 5.9996     | 344.94     | 367.94     | 471.2 | 24.00
Other   |            | 0.9235     |            |       |  0.06

Nlocal:    62.5 ave 66 max 58 min
Histogram: 1 1 1 1 0 3 3 4 1 1
Nghost:    1869 ave 1884 max 1846 min
Histogram: 1 1 1 0 3 1 1 2 4 2
Neighs:    0 ave 0 max 0 min
Histogram: 16 0 0 0 0 0 0 0 0 0
FullNghs:  19017.5 ave 20083 max 17606 min
Histogram: 1 1 1 1 2 1 3 3 2 1

Total # of neighbors = 304280
Ave neighs/atom = 304.28
Neighbor list builds = 100000
Dangerous builds not checked
Total wall time: 4:01:08
