LAMMPS (16 Mar 2018)
Reading data file ...
  orthogonal box = (-4.72324 -4.72324 -4.72324) to (4.72324 4.72324 4.72324)
  2 by 2 by 4 MPI processor grid
  reading atoms ...
  1000 atoms
Reading potential file /home/fs01/ajm529/lammps-16Mar18/potentials/sw_potentials/AG/eps2.23.sw with DATE: 2008-01-29
Neighbor list info ...
  update every 1 steps, delay 0 steps, check no
  max neighbors/atom: 2000, page size: 100000
  master list distance cutoff = 3.836
  ghost atom cutoff = 3.836
  binsize = 1.918, bins = 5 5 5
  1 neighbor lists, perpetual/occasional/extra = 1 0 0
  (1) pair sw, perpetual
      attributes: full, newton on
      pair build: full/bin/atomonly
      stencil: full/bin/3d
      bin: standard
Setting up Verlet run ...
  Unit style    : real
  Current step  : 0
  Time step     : 1
Per MPI rank memory allocation (min/avg/max) = 3.518 | 3.519 | 3.521 Mbytes
Step Temp E_pair E_mol TotEng Press Volume Lx Ly Lz S/CPU 
       0          300   -10150.911            0   -9257.5627   -33777.809    842.96527    9.4464775    9.4464775    9.4464775            0 
     100    328.50999   -10240.422            0   -9262.1754    -54217.94    840.93271    9.4388789    9.4388789    9.4388789    42.621685 
     200    321.35884    -10231.01            0   -9274.0578   -50026.306    834.58708    9.4150772    9.4150772    9.4150772    34.244276 
     300    343.64096   -10319.559            0   -9296.2549   -36928.506    824.67828     9.377668     9.377668     9.377668     29.81376 
     400    323.82404   -10284.013            0   -9319.7205   -20108.975    813.09821    9.3335674    9.3335674    9.3335674    48.392796 
     500    332.36008   -10329.869            0   -9340.1573   -10655.433    801.85156    9.2903339    9.2903339    9.2903339    44.387666 
     600    332.38769   -10346.222            0   -9356.4284    11562.852    792.27435    9.2531982    9.2531982    9.2531982    34.003612 
     700    322.59139   -10329.956            0   -9369.3342    29383.987    785.31993    9.2260444    9.2260444    9.2260444    42.419695 
     800    318.82003   -10333.643            0   -9384.2519    24056.846     780.8893    9.2086611    9.2086611    9.2086611    40.217995 
     900      322.548   -10361.689            0   -9401.1965    8409.5014    778.52913    9.1993743    9.1993743    9.1993743    40.995244 
    1000    319.65259   -10372.155            0   -9420.2845    25061.316    777.33308    9.1946609    9.1946609    9.1946609    39.985919 
Loop time of 25.6648 on 16 procs for 1000 steps with 1000 atoms

Performance: 3.366 ns/day, 7.129 hours/ns, 38.964 timesteps/s
95.6% CPU use with 16 MPI tasks x no OpenMP threads

MPI task timing breakdown:
Section |  min time  |  avg time  |  max time  |%varavg| %total
---------------------------------------------------------------
Pair    | 3.8971     | 4.2238     | 5.0856     |  14.8 | 16.46
Neigh   | 1.2783     | 1.3613     | 1.5952     |   7.1 |  5.30
Comm    | 1.9687     | 3.0635     | 3.4739     |  21.9 | 11.94
Output  | 11.556     | 11.898     | 16.938     |  37.7 | 46.36
Modify  | 0.065505   | 5.1069     | 5.4503     |  57.6 | 19.90
Other   |            | 0.01125    |            |       |  0.04

Nlocal:    62.5 ave 68 max 58 min
Histogram: 1 2 1 2 3 2 1 1 1 2
Nghost:    1876.5 ave 1892 max 1863 min
Histogram: 2 0 1 4 2 3 1 1 1 1
Neighs:    0 ave 0 max 0 min
Histogram: 16 0 0 0 0 0 0 0 0 0
FullNghs:  18985.5 ave 20709 max 17722 min
Histogram: 3 1 1 4 1 2 1 1 0 2

Total # of neighbors = 303768
Ave neighs/atom = 303.768
Neighbor list builds = 1000
Dangerous builds not checked
Setting up Verlet run ...
  Unit style    : real
  Current step  : 1000
  Time step     : 1
Per MPI rank memory allocation (min/avg/max) = 3.769 | 4.376 | 4.58 Mbytes
Step Temp E_pair E_mol TotEng Press Volume Lx Ly Lz S/CPU 
    1000    319.65259   -10372.155            0   -9420.2845    25061.316    777.33308    9.1946609    9.1946609    9.1946609            0 
    1100    320.96801   -10395.097            0    -9439.309    12187.477    777.24767    9.1943241    9.1943241    9.1943241    54.730776 
    1200    315.67862   -10397.337            0   -9457.2996    4983.5773    777.95766    9.1971229    9.1971229    9.1971229    36.241963 
    1300    311.73693   -10401.686            0   -9473.3871    16371.671    779.20749    9.2020454    9.2020454    9.2020454    40.274445 
    1400    305.18852   -10398.323            0   -9489.5238    1438.9095    781.11737    9.2095575    9.2095575    9.2095575     40.44497 
    1500    303.10329   -10407.222            0   -9504.6323   -168.16125    783.35927      9.21836      9.21836      9.21836     38.72764 
    1600    302.65107   -10420.342            0   -9519.0991   -718.87323    785.79801    9.2279162    9.2279162    9.2279162    34.504898 
    1700    310.28935   -10458.918            0   -9534.9292    338.45733    787.85409    9.2359576    9.2359576    9.2359576    40.156701 
    1800    307.25472   -10464.024            0   -9549.0718    5664.6449    789.81375    9.2436089    9.2436089    9.2436089    44.870838 
    1900    302.98567   -10464.355            0   -9562.1158   -18963.639    791.45716    9.2500157    9.2500157    9.2500157    40.476939 
    2000    293.96788   -10450.101            0   -9574.7147   -25437.848    791.99466    9.2521092    9.2521092    9.2521092    40.040262 
Loop time of 24.709 on 16 procs for 1000 steps with 1000 atoms

Performance: 3.497 ns/day, 6.864 hours/ns, 40.471 timesteps/s
95.8% CPU use with 16 MPI tasks x no OpenMP threads

MPI task timing breakdown:
Section |  min time  |  avg time  |  max time  |%varavg| %total
---------------------------------------------------------------
Pair    | 4.1605     | 4.5494     | 5.5619     |  14.6 | 18.41
Neigh   | 1.3082     | 1.4065     | 1.6665     |   6.8 |  5.69
Comm    | 1.9063     | 3.1777     | 3.666      |  21.9 | 12.86
Output  | 10.171     | 10.507     | 15.472     |  39.5 | 42.52
Modify  | 0.0906     | 5.0571     | 5.3941     |  57.0 | 20.47
Other   |            | 0.01138    |            |       |  0.05

Nlocal:    62.5 ave 70 max 58 min
Histogram: 2 1 6 2 0 2 0 2 0 1
Nghost:    1840.62 ave 1860 max 1821 min
Histogram: 1 1 1 3 1 5 1 0 1 2
Neighs:    0 ave 0 max 0 min
Histogram: 16 0 0 0 0 0 0 0 0 0
FullNghs:  18624.4 ave 20810 max 17242 min
Histogram: 2 1 7 1 0 1 1 1 1 1

Total # of neighbors = 297990
Ave neighs/atom = 297.99
Neighbor list builds = 1000
Dangerous builds not checked
Setting up Verlet run ...
  Unit style    : real
  Current step  : 2000
  Time step     : 1
Per MPI rank memory allocation (min/avg/max) = 3.77 | 4.528 | 4.58 Mbytes
Step Temp E_pair E_mol TotEng Press Volume Lx Ly Lz S/CPU 
    2000    293.96788   -10450.101            0   -9574.7147   -25437.848    791.99466    9.2521092    9.2521092    9.2521092            0 
    2100     297.3933   -10470.964            0   -9585.3778    -13012.43    791.35193    9.2496057    9.2496057    9.2496057    39.947078 
    2200    296.22984   -10477.361            0   -9595.2386   -8777.7371    789.72266    9.2432536    9.2432536    9.2432536    32.872605 
    2300    300.49483   -10500.526            0   -9605.7034    74.488679    787.76974     9.235628     9.235628     9.235628    34.939751 
    2400    302.93723   -10514.323            0    -9612.228   -11112.623    786.19178    9.2294573    9.2294573    9.2294573    40.309593 
    2500    294.24592   -10495.137            0   -9618.9231    7947.8415    784.84699    9.2241919    9.2241919    9.2241919    39.661068 
    2600    296.84944   -10509.736            0   -9625.7695    12491.452    783.95153    9.2206826    9.2206826    9.2206826    39.115878 
    2700    305.62587   -10541.786            0   -9631.6848   -2544.4082    783.81752    9.2201571    9.2201571    9.2201571    28.972645 
    2800    299.93685   -10529.744            0   -9636.5832   -2058.7924    783.78186    9.2200173    9.2200173    9.2200173    40.660505 
    2900    297.82526   -10528.395            0    -9641.522   -6812.3347    783.70502     9.219716     9.219716     9.219716    39.488336 
    3000    295.10034   -10524.628            0   -9645.8698   -486.44092    783.40079    9.2185228    9.2185228    9.2185228    42.310229 
Loop time of 26.7729 on 16 procs for 1000 steps with 1000 atoms

Performance: 3.227 ns/day, 7.437 hours/ns, 37.351 timesteps/s
95.6% CPU use with 16 MPI tasks x no OpenMP threads

MPI task timing breakdown:
Section |  min time  |  avg time  |  max time  |%varavg| %total
---------------------------------------------------------------
Pair    | 3.9905     | 4.4986     | 5.5622     |  17.3 | 16.80
Neigh   | 1.2518     | 1.4021     | 1.6996     |   9.1 |  5.24
Comm    | 1.9027     | 3.2626     | 3.9211     |  26.2 | 12.19
Output  | 12.532     | 12.848     | 17.516     |  33.6 | 47.99
Modify  | 0.079994   | 4.7498     | 5.0672     |  55.3 | 17.74
Other   |            | 0.01135    |            |       |  0.04

Nlocal:    62.5 ave 67 max 58 min
Histogram: 1 0 4 1 2 2 2 2 1 1
Nghost:    1855.12 ave 1882 max 1830 min
Histogram: 2 1 2 1 2 3 1 1 0 3
Neighs:    0 ave 0 max 0 min
Histogram: 16 0 0 0 0 0 0 0 0 0
FullNghs:  18852.9 ave 20432 max 17152 min
Histogram: 1 0 3 1 4 1 1 1 3 1

Total # of neighbors = 301646
Ave neighs/atom = 301.646
Neighbor list builds = 1000
Dangerous builds not checked
Setting up Verlet run ...
  Unit style    : real
  Current step  : 3000
  Time step     : 1
Per MPI rank memory allocation (min/avg/max) = 4.577 | 4.579 | 4.58 Mbytes
Step Temp E_pair E_mol TotEng Press Volume Lx Ly Lz S/CPU 
    3000    295.10034   -10524.628            0   -9645.8698   -486.44092    783.40079    9.2185228    9.2185228    9.2185228            0 
    3100    287.25977   -10504.719            0   -9649.3088    2181.1771    783.09849    9.2173369    9.2173369    9.2173369    43.987595 
    3200    299.90315   -10548.466            0   -9655.4053     5793.675    782.93259     9.216686     9.216686     9.216686    50.030769 
    3300    295.34832   -10538.624            0    -9659.127    167.16334    782.68061    9.2156971    9.2156971    9.2156971    40.951573 
    3400    295.12842    -10541.64            0   -9662.7982   -5025.0386    782.32758    9.2143113    9.2143113    9.2143113    34.434149 
    3500     302.4437   -10568.172            0   -9667.5467   -8699.7881     781.6244    9.2115498    9.2115498    9.2115498    48.822495 
    3600    284.44721   -10516.967            0   -9669.9315    -1316.104    780.40284    9.2067485    9.2067485    9.2067485    38.095869 
    3700    296.70413   -10554.576            0    -9671.042   -1868.4669    779.16694    9.2018858    9.2018858    9.2018858    42.792843 
    3800    285.13352   -10519.573            0   -9670.4945    10991.701    777.92235    9.1969837    9.1969837    9.1969837    42.890591 
    3900    283.96473   -10514.665            0   -9669.0666   -1994.4017    777.02627     9.193451     9.193451     9.193451    41.391067 
    4000    290.06807   -10528.036            0   -9664.2625   -399.52954    776.40772    9.1910109    9.1910109    9.1910109    43.642578 
Loop time of 23.667 on 16 procs for 1000 steps with 1000 atoms

Performance: 3.651 ns/day, 6.574 hours/ns, 42.253 timesteps/s
95.6% CPU use with 16 MPI tasks x no OpenMP threads

MPI task timing breakdown:
Section |  min time  |  avg time  |  max time  |%varavg| %total
---------------------------------------------------------------
Pair    | 3.6605     | 3.8802     | 4.4924     |   9.7 | 16.39
Neigh   | 1.1416     | 1.1908     | 1.3773     |   5.0 |  5.03
Comm    | 2.009      | 2.8067     | 3.077      |  14.6 | 11.86
Output  | 10.375     | 10.713     | 15.709     |  39.4 | 45.26
Modify  | 0.06883    | 5.0664     | 5.4065     |  57.3 | 21.41
Other   |            | 0.01013    |            |       |  0.04

Nlocal:    62.5 ave 69 max 58 min
Histogram: 2 0 6 2 1 1 1 1 1 1
Nghost:    1878.31 ave 1905 max 1852 min
Histogram: 3 0 2 2 0 1 4 2 1 1
Neighs:    0 ave 0 max 0 min
Histogram: 16 0 0 0 0 0 0 0 0 0
FullNghs:  19008.1 ave 20814 max 17418 min
Histogram: 2 0 1 5 3 0 1 1 1 2

Total # of neighbors = 304130
Ave neighs/atom = 304.13
Neighbor list builds = 1000
Dangerous builds not checked
Setting up Verlet run ...
  Unit style    : real
  Current step  : 4000
  Time step     : 1
Per MPI rank memory allocation (min/avg/max) = 4.577 | 4.579 | 4.58 Mbytes
Step Temp E_pair E_mol TotEng Press Volume Lx Ly Lz S/CPU 
    4000    290.06807   -10528.036            0   -9664.2625   -399.52954    776.40772    9.1910109    9.1910109    9.1910109            0 
    4100    280.93972   -10493.725            0   -9657.1341    16898.535    776.02672    9.1895072    9.1895072    9.1895072    45.416083 
    4200    291.00947   -10515.327            0   -9648.7502    6035.1153    776.32336     9.190678     9.190678     9.190678    42.927238 
    4300    297.84402   -10525.571            0   -9638.6425     12859.88    777.14813    9.1939316    9.1939316    9.1939316    37.521749 
    4400    307.17511   -10541.918            0   -9627.2027   -45.011535    778.27613    9.1983777    9.1983777    9.1983777    49.587409 
    4500    300.46973    -10511.39            0   -9616.6426    7530.7333    779.40043    9.2028049    9.2028049    9.2028049    38.389675 
    4600    311.52892   -10536.842            0   -9609.1618    7836.8597    780.90819    9.2087354    9.2087354    9.2087354    41.721031 
    4700    304.83039   -10511.905            0   -9604.1723    5832.9327    782.89749    9.2165482    9.2165482    9.2165482    40.388641 
    4800    287.45739    -10455.03            0   -9599.0312    2220.5585    785.32303    9.2260565    9.2260565    9.2260565    37.670841 
    4900    299.73231   -10488.907            0   -9596.3554    -9563.649    787.09969    9.2330088    9.2330088    9.2330088    41.271938 
    5000    300.15339   -10485.352            0   -9591.5462   -590.99708    788.02033    9.2366072    9.2366072    9.2366072    46.774654 
Loop time of 23.9063 on 16 procs for 1000 steps with 1000 atoms

Performance: 3.614 ns/day, 6.641 hours/ns, 41.830 timesteps/s
95.8% CPU use with 16 MPI tasks x no OpenMP threads

MPI task timing breakdown:
Section |  min time  |  avg time  |  max time  |%varavg| %total
---------------------------------------------------------------
Pair    | 3.8871     | 4.396      | 5.2804     |  14.9 | 18.39
Neigh   | 1.2313     | 1.3545     | 1.5946     |   6.9 |  5.67
Comm    | 1.9462     | 3.0697     | 3.7049     |  22.4 | 12.84
Output  | 10.541     | 10.825     | 15.003     |  32.8 | 45.28
Modify  | 0.069626   | 4.2499     | 4.5353     |  52.4 | 17.78
Other   |            | 0.01108    |            |       |  0.05

Nlocal:    62.5 ave 67 max 57 min
Histogram: 1 1 2 0 1 0 6 1 1 3
Nghost:    1850.75 ave 1872 max 1835 min
Histogram: 1 1 3 2 4 3 1 0 0 1
Neighs:    0 ave 0 max 0 min
Histogram: 16 0 0 0 0 0 0 0 0 0
FullNghs:  18718.4 ave 20186 max 17009 min
Histogram: 1 3 0 0 1 4 3 1 1 2

Total # of neighbors = 299494
Ave neighs/atom = 299.494
Neighbor list builds = 1000
Dangerous builds not checked
Setting up Verlet run ...
  Unit style    : real
  Current step  : 5000
  Time step     : 1
Per MPI rank memory allocation (min/avg/max) = 4.577 | 4.579 | 4.58 Mbytes
Step Temp E_pair E_mol TotEng Press Volume Lx Ly Lz S/CPU 
    5000    300.15339   -10485.352            0   -9591.5462   -590.99708    788.02033    9.2366072    9.2366072    9.2366072            0 
    5100    293.71169   -10462.146            0    -9587.523   -4621.1018    788.51792    9.2385509    9.2385509    9.2385509    45.468314 
    5200    309.04194   -10504.637            0   -9584.3629   -7256.8051    788.36455    9.2379519    9.2379519    9.2379519    44.339451 
    5300    304.77253   -10489.591            0   -9582.0307   -633.31702     787.4786    9.2344901    9.2344901    9.2344901    33.721396 
    5400    290.33697   -10442.509            0   -9577.9351   -8449.3811    786.01804    9.2287774    9.2287774    9.2287774    36.649021 
    5500     299.8707   -10470.308            0   -9577.3442   -7109.1126    783.75293    9.2199039    9.2199039    9.2199039    41.463409 
    5600    294.00255   -10449.477            0   -9573.9878    -596.0099    781.14262    9.2096568    9.2096568    9.2096568    40.706733 
    5700    303.88743   -10476.121            0   -9571.1964    6672.5439    778.48334    9.1991939    9.1991939    9.1991939    39.514286 
    5800    314.92409     -10506.9            0   -9569.1098    3290.4295    776.31432    9.1906424    9.1906424    9.1906424    36.851095 
    5900    313.50426   -10502.727            0   -9569.1646     8972.209    774.98456    9.1853917    9.1853917    9.1853917    43.148953 
    6000    308.13721    -10491.37            0   -9573.7903    8834.5062    774.49517    9.1834579    9.1834579    9.1834579    38.889783 
Loop time of 25.1504 on 16 procs for 1000 steps with 1000 atoms

Performance: 3.435 ns/day, 6.986 hours/ns, 39.761 timesteps/s
95.6% CPU use with 16 MPI tasks x no OpenMP threads

MPI task timing breakdown:
Section |  min time  |  avg time  |  max time  |%varavg| %total
---------------------------------------------------------------
Pair    | 3.9569     | 4.1576     | 4.9431     |  11.2 | 16.53
Neigh   | 1.237      | 1.2827     | 1.4925     |   5.3 |  5.10
Comm    | 1.9469     | 2.9416     | 3.1866     |  16.8 | 11.70
Output  | 11.445     | 11.778     | 16.69      |  37.0 | 46.83
Modify  | 0.066133   | 4.9801     | 5.3149     |  56.9 | 19.80
Other   |            | 0.01068    |            |       |  0.04

Nlocal:    62.5 ave 69 max 56 min
Histogram: 1 1 1 5 2 0 2 1 1 2
Nghost:    1876.06 ave 1900 max 1847 min
Histogram: 2 0 1 1 3 1 3 2 1 2
Neighs:    0 ave 0 max 0 min
Histogram: 16 0 0 0 0 0 0 0 0 0
FullNghs:  19064 ave 21267 max 17088 min
Histogram: 1 1 3 3 2 1 1 1 2 1

Total # of neighbors = 305024
Ave neighs/atom = 305.024
Neighbor list builds = 1000
Dangerous builds not checked
Setting up Verlet run ...
  Unit style    : real
  Current step  : 6000
  Time step     : 1
Per MPI rank memory allocation (min/avg/max) = 4.577 | 4.579 | 4.58 Mbytes
Step Temp E_pair E_mol TotEng Press Volume Lx Ly Lz S/CPU 
    6000    308.13721    -10491.37            0   -9573.7903    8834.5062    774.49517    9.1834579    9.1834579    9.1834579            0 
    6100     309.4011   -10504.593            0   -9583.2491    20232.581    774.63074    9.1839937    9.1839937    9.1839937    24.762176 
    6200    306.25899   -10510.088            0   -9598.1007    1752.4541    775.58542     9.187765     9.187765     9.187765    34.335997 
    6300    288.87003   -10476.677            0   -9616.4716   -7710.5363    776.84613    9.1927405    9.1927405    9.1927405    43.122004 
    6400    285.31568   -10484.841            0   -9635.2196    862.00665    778.28774    9.1984234    9.1984234    9.1984234    38.085956 
    6500    296.89119   -10532.321            0   -9648.2294   -556.09652    779.55574    9.2034161    9.2034161    9.2034161    42.139046 
    6600    282.20072    -10495.83            0   -9655.4845   -10081.713    780.42112    9.2068204    9.2068204    9.2068204    45.958562 
    6700    291.37138   -10527.476            0   -9659.8217   -366.31429    780.71981    9.2079948    9.2079948    9.2079948    44.798278 
    6800    286.16231   -10514.851            0   -9662.7083   -764.59724    780.64238    9.2076904    9.2076904    9.2076904    38.374941 
    6900    286.37943   -10515.842            0   -9663.0526   -1311.3268    780.43555    9.2068771    9.2068771    9.2068771    38.686373 
    7000     295.0408   -10542.277            0    -9663.696   -17832.943    780.16813    9.2058254    9.2058254    9.2058254    47.951881 
Loop time of 25.9529 on 16 procs for 1000 steps with 1000 atoms

Performance: 3.329 ns/day, 7.209 hours/ns, 38.531 timesteps/s
95.6% CPU use with 16 MPI tasks x no OpenMP threads

MPI task timing breakdown:
Section |  min time  |  avg time  |  max time  |%varavg| %total
---------------------------------------------------------------
Pair    | 4.094      | 4.3544     | 5.0893     |  10.8 | 16.78
Neigh   | 1.2682     | 1.3349     | 1.5341     |   5.1 |  5.14
Comm    | 2.1046     | 3.0372     | 3.3496     |  16.2 | 11.70
Output  | 12.238     | 12.55      | 17.152     |  33.5 | 48.36
Modify  | 0.060864   | 4.6652     | 4.9797     |  55.0 | 17.98
Other   |            | 0.01105    |            |       |  0.04

Nlocal:    62.5 ave 67 max 58 min
Histogram: 1 2 1 2 3 1 2 0 3 1
Nghost:    1866.62 ave 1894 max 1847 min
Histogram: 3 1 3 2 3 0 0 1 0 3
Neighs:    0 ave 0 max 0 min
Histogram: 16 0 0 0 0 0 0 0 0 0
FullNghs:  18911 ave 20185 max 17621 min
Histogram: 3 0 2 2 2 1 1 1 1 3

Total # of neighbors = 302576
Ave neighs/atom = 302.576
Neighbor list builds = 1000
Dangerous builds not checked
Setting up Verlet run ...
  Unit style    : real
  Current step  : 7000
  Time step     : 1
Per MPI rank memory allocation (min/avg/max) = 4.577 | 4.579 | 4.58 Mbytes
Step Temp E_pair E_mol TotEng Press Volume Lx Ly Lz S/CPU 
    7000     295.0408   -10542.277            0    -9663.696   -17832.943    780.16813    9.2058254    9.2058254    9.2058254            0 
    7100    299.72496   -10554.622            0   -9662.0919    10722.515    779.68534    9.2039261    9.2039261    9.2039261    46.962326 
    7200     288.5775   -10518.305            0   -9658.9701   -15164.096    779.66627    9.2038511    9.2038511    9.2038511    41.314318 
    7300    291.76659   -10522.387            0   -9653.5564    4794.4067    779.48089    9.2031216    9.2031216    9.2031216    43.955801 
    7400    299.20832   -10538.919            0    -9647.928    3143.8088    779.51932    9.2032728    9.2032728    9.2032728    42.472027 
    7500    294.64112    -10517.24            0    -9639.849    19112.969     780.1008    9.2055606    9.2055606    9.2055606    39.461917 
    7600    299.27078   -10523.128            0    -9631.951    7198.4356    781.26278     9.210129     9.210129     9.210129    44.333756 
    7700    294.88176   -10502.157            0   -9624.0491   -11485.009    782.64089    9.2155412    9.2155412    9.2155412    40.621887 
    7800    308.62586   -10534.111            0   -9615.0755   -5398.3556    784.06906    9.2211433    9.2211433    9.2211433      44.6311 
    7900    295.88002   -10487.105            0   -9606.0251   -162.00698     785.3707    9.2262432    9.2262432    9.2262432     43.97984 
    8000     299.4589   -10489.415            0   -9597.6771    1507.6537    786.52478    9.2307602    9.2307602    9.2307602      41.7678 
Loop time of 23.3394 on 16 procs for 1000 steps with 1000 atoms

Performance: 3.702 ns/day, 6.483 hours/ns, 42.846 timesteps/s
95.8% CPU use with 16 MPI tasks x no OpenMP threads

MPI task timing breakdown:
Section |  min time  |  avg time  |  max time  |%varavg| %total
---------------------------------------------------------------
Pair    | 3.8978     | 4.3207     | 5.283      |  17.6 | 18.51
Neigh   | 1.2219     | 1.3337     | 1.6128     |   8.9 |  5.71
Comm    | 1.7299     | 2.9699     | 3.4973     |  27.1 | 12.72
Output  | 10.371     | 10.642     | 14.636     |  31.6 | 45.60
Modify  | 0.065188   | 4.0616     | 4.3343     |  51.2 | 17.40
Other   |            | 0.01094    |            |       |  0.05

Nlocal:    62.5 ave 68 max 58 min
Histogram: 1 3 0 1 1 4 4 0 1 1
Nghost:    1850.25 ave 1865 max 1840 min
Histogram: 3 1 2 1 4 0 4 0 0 1
Neighs:    0 ave 0 max 0 min
Histogram: 16 0 0 0 0 0 0 0 0 0
FullNghs:  18750.9 ave 20456 max 17302 min
Histogram: 3 1 0 1 1 5 3 1 0 1

Total # of neighbors = 300014
Ave neighs/atom = 300.014
Neighbor list builds = 1000
Dangerous builds not checked
Setting up Verlet run ...
  Unit style    : real
  Current step  : 8000
  Time step     : 1
Per MPI rank memory allocation (min/avg/max) = 4.577 | 4.579 | 4.58 Mbytes
Step Temp E_pair E_mol TotEng Press Volume Lx Ly Lz S/CPU 
    8000     299.4589   -10489.415            0   -9597.6771    1507.6537    786.52478    9.2307602    9.2307602    9.2307602            0 
    8100    295.40153   -10470.129            0   -9590.4738   -12419.609    787.67369    9.2352526    9.2352526    9.2352526    33.652291 
    8200    297.58528   -10468.783            0    -9582.625   -559.56405    788.66889    9.2391405    9.2391405    9.2391405    40.862865 
    8300    291.64226   -10445.663            0   -9577.2023   -27.068883     789.6478    9.2429615    9.2429615    9.2429615    47.577024 
    8400    302.36728   -10473.469            0   -9573.0709   -2985.7334    790.58312    9.2466094    9.2466094    9.2466094    37.593528 
    8500    300.29972   -10463.928            0    -9569.687    5539.8068    791.71797    9.2510317    9.2510317    9.2510317    35.638033 
    8600     311.1792   -10495.062            0   -9568.4233   -7286.0821     792.8021    9.2552523    9.2552523    9.2552523    51.565564 
    8700    301.67446   -10465.529            0   -9567.1942   -12461.386    793.19514    9.2567816    9.2567816    9.2567816    29.957631 
    8800    301.18695   -10463.967            0   -9567.0836    3306.6829    792.41651    9.2537516    9.2537516    9.2537516    46.776498 
    8900    303.30291   -10470.847            0   -9567.6627   -10565.546     791.1741    9.2489129    9.2489129    9.2489129    40.991568 
    9000    301.54361   -10465.624            0   -9567.6788   -5003.8581     789.6642    9.2430255    9.2430255    9.2430255    38.422326 
Loop time of 25.444 on 16 procs for 1000 steps with 1000 atoms

Performance: 3.396 ns/day, 7.068 hours/ns, 39.302 timesteps/s
95.4% CPU use with 16 MPI tasks x no OpenMP threads

MPI task timing breakdown:
Section |  min time  |  avg time  |  max time  |%varavg| %total
---------------------------------------------------------------
Pair    | 3.6134     | 3.983      | 4.6374     |  10.3 | 15.65
Neigh   | 1.1626     | 1.2519     | 1.4273     |   4.7 |  4.92
Comm    | 1.848      | 2.6764     | 3.1347     |  15.7 | 10.52
Output  | 12.231     | 12.561     | 17.438     |  35.5 | 49.37
Modify  | 0.082395   | 4.9612     | 5.2914     |  56.6 | 19.50
Other   |            | 0.01048    |            |       |  0.04

Nlocal:    62.5 ave 66 max 55 min
Histogram: 1 0 0 1 1 2 3 0 3 5
Nghost:    1848.44 ave 1863 max 1836 min
Histogram: 1 2 3 1 3 0 3 1 1 1
Neighs:    0 ave 0 max 0 min
Histogram: 16 0 0 0 0 0 0 0 0 0
FullNghs:  18680.9 ave 19818 max 16220 min
Histogram: 1 0 0 1 1 2 3 1 4 3

Total # of neighbors = 298894
Ave neighs/atom = 298.894
Neighbor list builds = 1000
Dangerous builds not checked
Setting up Verlet run ...
  Unit style    : real
  Current step  : 9000
  Time step     : 1
Per MPI rank memory allocation (min/avg/max) = 4.577 | 4.579 | 4.58 Mbytes
Step Temp E_pair E_mol TotEng Press Volume Lx Ly Lz S/CPU 
    9000    301.54361   -10465.624            0   -9567.6788   -5003.8581     789.6642    9.2430255    9.2430255    9.2430255            0 
    9100    300.20314   -10462.809            0    -9568.855   -14856.491    788.11405    9.2369733    9.2369733    9.2369733    41.314943 
    9200    306.16503   -10480.052            0   -9568.3448   -6823.6173    786.31858    9.2299535    9.2299535    9.2299535    44.229559 
    9300    318.46773   -10519.854            0   -9571.5111     6969.919    784.39487    9.2224204    9.2224204    9.2224204    38.239331 
    9400    313.73486   -10510.281            0   -9576.0317   -6890.5562    782.58044    9.2153039    9.2153039    9.2153039    41.021968 
    9500    310.58958   -10506.443            0   -9581.5603    11457.605    780.92485    9.2088008    9.2088008    9.2088008    39.593447 
    9600    314.25005    -10523.84            0   -9588.0573     14507.04    779.77526    9.2042799    9.2042799    9.2042799    46.828445 
    9700    307.60421   -10511.829            0   -9595.8358    5831.6828    779.10891    9.2016574    9.2016574    9.2016574    36.747904 
    9800    302.08747    -10502.45            0   -9602.8855    8818.2748    778.83561    9.2005813    9.2005813    9.2005813    39.751628 
    9900    296.14285   -10490.284            0   -9608.4212    1977.3707    779.13968    9.2017785    9.2017785    9.2017785    48.625913 
   10000    300.06547   -10508.091            0   -9614.5468    17253.165    780.11619    9.2056211    9.2056211    9.2056211     35.34055 
Loop time of 24.5184 on 16 procs for 1000 steps with 1000 atoms

Performance: 3.524 ns/day, 6.811 hours/ns, 40.786 timesteps/s
95.7% CPU use with 16 MPI tasks x no OpenMP threads

MPI task timing breakdown:
Section |  min time  |  avg time  |  max time  |%varavg| %total
---------------------------------------------------------------
Pair    | 3.6438     | 4.2243     | 5.4393     |  22.8 | 17.23
Neigh   | 1.1521     | 1.303      | 1.6331     |  11.2 |  5.31
Comm    | 1.542      | 3.0885     | 3.7871     |  34.0 | 12.60
Output  | 10.913     | 11.225     | 15.827     |  35.5 | 45.78
Modify  | 0.064365   | 4.6664     | 4.9794     |  55.0 | 19.03
Other   |            | 0.01084    |            |       |  0.04

Nlocal:    62.5 ave 67 max 55 min
Histogram: 1 0 1 0 2 3 3 1 1 4
Nghost:    1871.25 ave 1890 max 1862 min
Histogram: 2 3 4 1 2 2 1 0 0 1
Neighs:    0 ave 0 max 0 min
Histogram: 16 0 0 0 0 0 0 0 0 0
FullNghs:  18927.4 ave 20317 max 16503 min
Histogram: 1 0 1 0 2 3 2 2 1 4

Total # of neighbors = 302838
Ave neighs/atom = 302.838
Neighbor list builds = 1000
Dangerous builds not checked
Setting up Verlet run ...
  Unit style    : real
  Current step  : 10000
  Time step     : 1
Per MPI rank memory allocation (min/avg/max) = 4.577 | 4.579 | 4.58 Mbytes
Step Temp E_pair E_mol TotEng Press Volume Lx Ly Lz S/CPU 
   10000    300.06547   -10508.091            0   -9614.5468    17253.165    780.11619    9.2056211    9.2056211    9.2056211            0 
   10100    300.14261   -10512.379            0   -9618.6056   -2110.0298    781.65648    9.2116758    9.2116758    9.2116758    39.596242 
   10200    298.48634   -10509.454            0   -9620.6126    4051.8269    783.39316    9.2184929    9.2184929    9.2184929    51.410033 
   10300    300.40571   -10518.126            0   -9623.5687    6191.6224    785.54761    9.2269359    9.2269359    9.2269359    40.572145 
   10400    288.32263   -10483.284            0   -9624.7084   -223.00404    787.68282    9.2352883    9.2352883    9.2352883     40.30475 
   10500    284.05797   -10470.554            0   -9624.6778   -6786.8545    789.58458    9.2427148    9.2427148    9.2427148    47.479913 
   10600    296.06337    -10505.79            0   -9624.1637   -6093.0935    791.02726    9.2483406    9.2483406    9.2483406    37.810156 
   10700    302.75594   -10522.495            0    -9620.939   -7240.9762    791.57616    9.2504793    9.2504793    9.2504793    32.464114 
   10800    295.05578   -10496.631            0   -9618.0056   -13437.264    791.10793     9.248655     9.248655     9.248655    50.235281 
   10900    303.07185   -10516.225            0   -9613.7292   -12170.926    790.04783     9.244522     9.244522     9.244522    39.296227 
   11000    299.46382   -10499.884            0   -9608.1321   -14962.938    788.47763    9.2383936    9.2383936    9.2383936    41.262754 
Loop time of 24.2067 on 16 procs for 1000 steps with 1000 atoms

Performance: 3.569 ns/day, 6.724 hours/ns, 41.311 timesteps/s
95.8% CPU use with 16 MPI tasks x no OpenMP threads

MPI task timing breakdown:
Section |  min time  |  avg time  |  max time  |%varavg| %total
---------------------------------------------------------------
Pair    | 3.8512     | 4.362      | 5.1346     |  17.3 | 18.02
Neigh   | 1.2412     | 1.3644     | 1.5869     |   7.6 |  5.64
Comm    | 2.2429     | 3.2375     | 3.8728     |  25.0 | 13.37
Output  | 10.118     | 10.437     | 15.143     |  37.6 | 43.12
Modify  | 0.087151   | 4.7947     | 5.1159     |  55.5 | 19.81
Other   |            | 0.01115    |            |       |  0.05

Nlocal:    62.5 ave 66 max 59 min
Histogram: 1 2 2 0 5 2 0 0 1 3
Nghost:    1852.31 ave 1865 max 1842 min
Histogram: 3 1 2 1 4 0 0 1 2 2
Neighs:    0 ave 0 max 0 min
Histogram: 16 0 0 0 0 0 0 0 0 0
FullNghs:  18719.6 ave 19885 max 17758 min
Histogram: 3 1 1 2 3 2 0 1 1 2

Total # of neighbors = 299514
Ave neighs/atom = 299.514
Neighbor list builds = 1000
Dangerous builds not checked
Setting up Verlet run ...
  Unit style    : real
  Current step  : 11000
  Time step     : 1
Per MPI rank memory allocation (min/avg/max) = 4.577 | 4.579 | 4.58 Mbytes
Step Temp E_pair E_mol TotEng Press Volume Lx Ly Lz S/CPU 
   11000    299.46382   -10499.884            0   -9608.1321   -14962.938    788.47763    9.2383936    9.2383936    9.2383936            0 
   11100    294.95053   -10480.474            0   -9602.1618    -6776.461    786.27289    9.2297747    9.2297747    9.2297747    52.595396 
   11200    306.35961   -10508.441            0    -9596.154    1039.8458    783.81421    9.2201442    9.2201442    9.2201442    42.626385 
   11300    302.26524   -10488.985            0   -9588.8912    1616.2773    781.59084    9.2114179    9.2114179    9.2114179    37.450505 
   11400    306.30036   -10495.205            0   -9583.0949    7557.6787    779.39873    9.2027982    9.2027982    9.2027982    58.777721 
   11500    300.13024   -10470.899            0   -9577.1626    6674.1304    777.39384    9.1949005    9.1949005    9.1949005    45.429086 
   11600    297.72588   -10460.471            0   -9573.8944    30346.273    775.78765    9.1885635    9.1885635    9.1885635    39.142373 
   11700    300.18953   -10464.909            0   -9570.9957    16153.337    775.30022    9.1866387    9.1866387    9.1866387    46.013496 
   11800    315.08914   -10509.573            0   -9571.2909    12113.885    775.86214    9.1888576    9.1888576    9.1888576    35.783998 
   11900    306.03048   -10483.505            0   -9572.1987    7445.2836    777.73782    9.1962564    9.1962564    9.1962564    43.174111 
   12000    298.20607   -10460.435            0   -9572.4281   -454.69334    780.38723    9.2066871    9.2066871    9.2066871    43.220683 
Loop time of 22.9726 on 16 procs for 1000 steps with 1000 atoms

Performance: 3.761 ns/day, 6.381 hours/ns, 43.530 timesteps/s
95.8% CPU use with 16 MPI tasks x no OpenMP threads

MPI task timing breakdown:
Section |  min time  |  avg time  |  max time  |%varavg| %total
---------------------------------------------------------------
Pair    | 3.6371     | 4.1917     | 5.3404     |  23.7 | 18.25
Neigh   | 1.1251     | 1.2852     | 1.5998     |  11.7 |  5.59
Comm    | 1.4875     | 2.9493     | 3.6647     |  35.9 | 12.84
Output  | 9.4665     | 9.7828     | 14.451     |  38.5 | 42.58
Modify  | 0.082437   | 4.7528     | 5.0711     |  55.3 | 20.69
Other   |            | 0.0107     |            |       |  0.05

Nlocal:    62.5 ave 68 max 57 min
Histogram: 3 0 0 3 0 4 2 1 1 2
Nghost:    1863.12 ave 1891 max 1836 min
Histogram: 2 2 2 1 2 1 1 0 2 3
Neighs:    0 ave 0 max 0 min
Histogram: 16 0 0 0 0 0 0 0 0 0
FullNghs:  18900.1 ave 20515 max 16973 min
Histogram: 2 1 0 2 2 3 2 0 1 3

Total # of neighbors = 302402
Ave neighs/atom = 302.402
Neighbor list builds = 1000
Dangerous builds not checked
Setting up Verlet run ...
  Unit style    : real
  Current step  : 12000
  Time step     : 1
Per MPI rank memory allocation (min/avg/max) = 4.577 | 4.579 | 4.58 Mbytes
Step Temp E_pair E_mol TotEng Press Volume Lx Ly Lz S/CPU 
   12000    298.20607   -10460.435            0   -9572.4281   -454.69334    780.38723    9.2066871    9.2066871    9.2066871            0 
   12100     311.2214   -10503.301            0   -9576.5372    6466.9484    783.25208    9.2179395    9.2179395    9.2179395     40.76913 
   12200    302.97445   -10483.602            0   -9581.3955   -12472.656    786.20741    9.2295185    9.2295185    9.2295185    36.807574 
   12300    299.82652   -10482.843            0   -9590.0109    -16561.77    788.71381    9.2393159    9.2393159    9.2393159    42.489458 
   12400    292.74649   -10476.847            0   -9605.0975   -15563.137     790.1451    9.2449014    9.2449014    9.2449014    41.776944 
   12500    291.86534   -10492.424            0   -9623.2992   -11042.191    790.81171    9.2475005    9.2475005    9.2475005    45.088512 
   12600    296.17185   -10521.308            0   -9639.3588   -10387.692    790.96109    9.2480827    9.2480827    9.2480827    43.884703 
   12700    288.64688   -10508.949            0    -9649.408   -19581.503    790.26129    9.2453545    9.2453545    9.2453545    41.414205 
   12800    299.00699   -10547.056            0   -9656.6642   -15559.765    788.51017    9.2385206    9.2385206    9.2385206    42.827709 
   12900    284.91298   -10508.409            0   -9659.9868   -5002.2379    786.35154    9.2300824    9.2300824    9.2300824    39.861981 
   13000    296.51826   -10545.493            0   -9662.5118     352.8423     784.0262    9.2209753    9.2209753    9.2209753      45.6797 
Loop time of 23.8608 on 16 procs for 1000 steps with 1000 atoms

Performance: 3.621 ns/day, 6.628 hours/ns, 41.910 timesteps/s
95.6% CPU use with 16 MPI tasks x no OpenMP threads

MPI task timing breakdown:
Section |  min time  |  avg time  |  max time  |%varavg| %total
---------------------------------------------------------------
Pair    | 3.743      | 3.991      | 4.5574     |   9.4 | 16.73
Neigh   | 1.1909     | 1.2504     | 1.4033     |   4.7 |  5.24
Comm    | 2.0738     | 2.7915     | 3.0885     |  14.3 | 11.70
Output  | 11.089     | 11.385     | 15.748     |  33.4 | 47.71
Modify  | 0.067171   | 4.4329     | 4.7306     |  53.5 | 18.58
Other   |            | 0.01047    |            |       |  0.04

Nlocal:    62.5 ave 67 max 55 min
Histogram: 1 0 1 1 1 4 1 2 0 5
Nghost:    1859 ave 1884 max 1830 min
Histogram: 1 2 1 1 1 3 2 2 1 2
Neighs:    0 ave 0 max 0 min
Histogram: 16 0 0 0 0 0 0 0 0 0
FullNghs:  18834 ave 20178 max 16352 min
Histogram: 1 0 1 1 1 4 0 1 2 5

Total # of neighbors = 301344
Ave neighs/atom = 301.344
Neighbor list builds = 1000
Dangerous builds not checked
Setting up Verlet run ...
  Unit style    : real
  Current step  : 13000
  Time step     : 1
Per MPI rank memory allocation (min/avg/max) = 4.577 | 4.579 | 4.58 Mbytes
Step Temp E_pair E_mol TotEng Press Volume Lx Ly Lz S/CPU 
   13000    296.51826   -10545.493            0   -9662.5118     352.8423     784.0262    9.2209753    9.2209753    9.2209753            0 
   13100    287.58046   -10518.868            0    -9662.502     4350.478    781.71144    9.2118917    9.2118917    9.2118917    46.591363 
   13200    284.55671   -10507.488            0   -9660.1272   -2273.9861    779.63175    9.2037152    9.2037152    9.2037152    38.120917 
   13300     282.4559   -10498.251            0   -9657.1455    18686.804    778.18727    9.1980276    9.1980276    9.1980276     44.73006 
   13400    300.35545   -10547.226            0   -9652.8192    1841.0249    777.58186    9.1956417    9.1956417    9.1956417    47.534112 
   13500    288.41418   -10502.669            0   -9643.8208    8015.0576    777.12784    9.1938516    9.1938516    9.1938516    35.802004 
   13600    297.83607   -10522.578            0    -9635.673   -618.56841    776.95508    9.1931703    9.1931703    9.1931703    41.631661 
   13700    298.13628   -10513.312            0    -9625.513    3030.5182    776.86605    9.1928191    9.1928191    9.1928191    38.129868 
   13800    302.34761   -10516.689            0   -9616.3491     5786.177    776.74023    9.1923228    9.1923228    9.1923228    42.395799 
   13900    296.68154   -10489.803            0   -9606.3361    1614.3095    776.51682    9.1914414    9.1914414    9.1914414    40.139914 
   14000    302.63624   -10501.088            0   -9599.8894    9456.2469    776.60045    9.1917714    9.1917714    9.1917714    39.414502 
Loop time of 24.3139 on 16 procs for 1000 steps with 1000 atoms

Performance: 3.554 ns/day, 6.754 hours/ns, 41.129 timesteps/s
95.9% CPU use with 16 MPI tasks x no OpenMP threads

MPI task timing breakdown:
Section |  min time  |  avg time  |  max time  |%varavg| %total
---------------------------------------------------------------
Pair    | 4.0682     | 4.7614     | 6.2177     |  26.4 | 19.58
Neigh   | 1.2727     | 1.4591     | 1.8783     |  13.9 |  6.00
Comm    | 1.6011     | 3.4777     | 4.358      |  39.9 | 14.30
Output  | 9.0331     | 9.3814     | 14.517     |  43.3 | 38.58
Modify  | 0.086376   | 5.2227     | 5.5716     |  58.0 | 21.48
Other   |            | 0.01165    |            |       |  0.05

Nlocal:    62.5 ave 66 max 55 min
Histogram: 2 0 0 1 0 1 1 3 4 4
Nghost:    1877.69 ave 1912 max 1852 min
Histogram: 3 1 1 3 1 2 2 2 0 1
Neighs:    0 ave 0 max 0 min
Histogram: 16 0 0 0 0 0 0 0 0 0
FullNghs:  19010.1 ave 20263 max 16546 min
Histogram: 1 1 0 1 0 1 2 4 4 2

Total # of neighbors = 304162
Ave neighs/atom = 304.162
Neighbor list builds = 1000
Dangerous builds not checked
Setting up Verlet run ...
  Unit style    : real
  Current step  : 14000
  Time step     : 1
Per MPI rank memory allocation (min/avg/max) = 4.577 | 4.579 | 4.58 Mbytes
Step Temp E_pair E_mol TotEng Press Volume Lx Ly Lz S/CPU 
   14000    302.63624   -10501.088            0   -9599.8894    9456.2469    776.60045    9.1917714    9.1917714    9.1917714            0 
   14100    296.07441   -10474.835            0   -9593.1755    4238.2107    777.52809    9.1954297    9.1954297    9.1954297    54.368166 
   14200    300.01173   -10482.984            0   -9589.6006    8367.7909    779.12904    9.2017366    9.2017366    9.2017366    41.603338 
   14300    312.31339   -10517.463            0   -9587.4474    7148.5384    781.12683    9.2095947    9.2095947    9.2095947    33.323107 
   14400    303.39933   -10489.134            0   -9585.6631   -14221.061    783.20405    9.2177511    9.2177511    9.2177511    45.371827 
   14500    304.58278   -10493.236            0   -9586.2403   -5595.5716    784.80492    9.2240272    9.2240272    9.2240272    39.262949 
   14600    302.85966   -10488.422            0   -9586.5575    2491.5354    786.28018    9.2298032    9.2298032    9.2298032    40.531243 
   14700    306.46746   -10500.271            0   -9587.6635   -8149.4815    788.37763     9.238003     9.238003     9.238003    37.964278 
   14800    302.78961   -10491.418            0   -9589.7618   -6238.1527    790.53793    9.2464332    9.2464332    9.2464332    47.824146 
   14900    293.22222   -10463.945            0    -9590.779   -16485.712    792.21392    9.2529629    9.2529629    9.2529629     45.48545 
   15000    295.83599   -10471.422            0   -9590.4725   -13287.395    793.13111    9.2565325    9.2565325    9.2565325    40.613362 
Loop time of 23.8479 on 16 procs for 1000 steps with 1000 atoms

Performance: 3.623 ns/day, 6.624 hours/ns, 41.932 timesteps/s
95.7% CPU use with 16 MPI tasks x no OpenMP threads

MPI task timing breakdown:
Section |  min time  |  avg time  |  max time  |%varavg| %total
---------------------------------------------------------------
Pair    | 3.652      | 4.372      | 4.8983     |  17.2 | 18.33
Neigh   | 1.1691     | 1.3641     | 1.5116     |   8.8 |  5.72
Comm    | 2.3205     | 2.9577     | 3.8701     |  26.7 | 12.40
Output  | 10.406     | 10.702     | 15.063     |  34.4 | 44.88
Modify  | 0.077474   | 4.4408     | 4.7405     |  53.5 | 18.62
Other   |            | 0.01113    |            |       |  0.05

Nlocal:    62.5 ave 71 max 55 min
Histogram: 2 0 0 3 5 2 1 2 0 1
Nghost:    1848.06 ave 1863 max 1835 min
Histogram: 2 2 2 3 0 0 1 3 0 3
Neighs:    0 ave 0 max 0 min
Histogram: 16 0 0 0 0 0 0 0 0 0
FullNghs:  18606.6 ave 21142 max 16248 min
Histogram: 2 0 0 2 6 3 0 2 0 1

Total # of neighbors = 297706
Ave neighs/atom = 297.706
Neighbor list builds = 1000
Dangerous builds not checked
Setting up Verlet run ...
  Unit style    : real
  Current step  : 15000
  Time step     : 1
Per MPI rank memory allocation (min/avg/max) = 4.577 | 4.579 | 4.58 Mbytes
Step Temp E_pair E_mol TotEng Press Volume Lx Ly Lz S/CPU 
   15000    295.83599   -10471.422            0   -9590.4725   -13287.395    793.13111    9.2565325    9.2565325    9.2565325            0 
   15100    299.13306   -10483.003            0   -9592.2359   -3597.5499    792.69867    9.2548498    9.2548498    9.2548498    33.729962 
   15200    297.78535   -10479.638            0   -9592.8842   -17138.571    791.22919    9.2491275    9.2491275    9.2491275    42.556255 
   15300    298.75008   -10483.026            0   -9593.3991     5303.749    788.76591    9.2395193    9.2395193    9.2395193    42.268349 
   15400    306.31606    -10505.79            0   -9593.6336   -3474.7112    785.99173    9.2286744    9.2286744    9.2286744    49.363148 
   15500    302.89235   -10495.858            0   -9593.8963    15909.403      783.075    9.2172448    9.2172448    9.2172448    39.030455 
   15600    301.33442   -10491.577            0   -9594.2541    955.55453    780.71624    9.2079808    9.2079808    9.2079808    45.009596 
   15700    303.60376   -10500.063            0   -9595.9833    18220.797    778.65001    9.1998504    9.1998504    9.1998504    36.697666 
   15800     297.0097    -10484.31            0   -9599.8663    16979.448    777.39285    9.1948966    9.1948966    9.1948966    48.452757 
   15900    309.79255   -10531.662            0   -9609.1529    2936.8855    776.83109    9.1926812    9.1926812    9.1926812      46.3493 
   16000    295.10596   -10502.425            0   -9623.6494    14162.791    776.95077    9.1931533    9.1931533    9.1931533    38.935211 
Loop time of 24.0048 on 16 procs for 1000 steps with 1000 atoms

Performance: 3.599 ns/day, 6.668 hours/ns, 41.658 timesteps/s
95.9% CPU use with 16 MPI tasks x no OpenMP threads

MPI task timing breakdown:
Section |  min time  |  avg time  |  max time  |%varavg| %total
---------------------------------------------------------------
Pair    | 4.2796     | 4.6623     | 5.2007     |  10.4 | 19.42
Neigh   | 1.3427     | 1.4489     | 1.6056     |   6.0 |  6.04
Comm    | 2.6018     | 3.2942     | 3.7727     |  16.2 | 13.72
Output  | 10.033     | 10.318     | 14.509     |  33.7 | 42.98
Modify  | 0.075681   | 4.2698     | 4.5577     |  52.4 | 17.79
Other   |            | 0.01158    |            |       |  0.05

Nlocal:    62.5 ave 68 max 57 min
Histogram: 2 1 1 4 1 0 1 3 1 2
Nghost:    1875.31 ave 1899 max 1847 min
Histogram: 1 1 4 2 0 0 1 3 0 4
Neighs:    0 ave 0 max 0 min
Histogram: 16 0 0 0 0 0 0 0 0 0
FullNghs:  19015.6 ave 20721 max 17311 min
Histogram: 2 1 0 4 2 0 1 2 2 2

Total # of neighbors = 304250
Ave neighs/atom = 304.25
Neighbor list builds = 1000
Dangerous builds not checked
Setting up Verlet run ...
  Unit style    : real
  Current step  : 16000
  Time step     : 1
Per MPI rank memory allocation (min/avg/max) = 4.577 | 4.579 | 4.58 Mbytes
Step Temp E_pair E_mol TotEng Press Volume Lx Ly Lz S/CPU 
   16000    295.10596   -10502.425            0   -9623.6494    14162.791    776.95077    9.1931533    9.1931533    9.1931533            0 
   16100    287.89444   -10499.733            0   -9642.4328    22917.893    778.36794    9.1987394    9.1987394    9.1987394    45.726301 
   16200    299.06682   -10552.036            0   -9661.4658    14787.777    781.00077    9.2090993    9.2090993    9.2090993    41.332867 
   16300    289.45741   -10534.617            0    -9672.662   -16451.306    784.08347    9.2211998    9.2211998    9.2211998    37.053172 
   16400    286.80091   -10533.324            0     -9679.28   -21740.814    786.54858    9.2308533    9.2308533    9.2308533    49.764312 
   16500    288.96867   -10542.366            0   -9681.8666   -12578.191    788.00108     9.236532     9.236532     9.236532    44.837038 
   16600    290.83258    -10546.56            0   -9680.5101   -8936.3469    788.67433    9.2391617    9.2391617    9.2391617    42.729737 
   16700    279.35727   -10509.103            0   -9677.2252   -17088.362    788.41534    9.2381503    9.2381503    9.2381503    37.174304 
   16800    290.71859   -10537.504            0   -9671.7937   -1651.1101    787.48305    9.2345075    9.2345075    9.2345075    37.342965 
   16900    294.72765   -10541.461            0   -9663.8126      13472.8    786.23872     9.229641     9.229641     9.229641    44.134801 
   17000    290.49383   -10517.658            0   -9652.6171   -6661.2423    785.12882    9.2252959    9.2252959    9.2252959    35.740107 
Loop time of 24.3169 on 16 procs for 1000 steps with 1000 atoms

Performance: 3.553 ns/day, 6.755 hours/ns, 41.124 timesteps/s
95.7% CPU use with 16 MPI tasks x no OpenMP threads

MPI task timing breakdown:
Section |  min time  |  avg time  |  max time  |%varavg| %total
---------------------------------------------------------------
Pair    | 3.9226     | 4.22       | 4.8623     |  10.9 | 17.35
Neigh   | 1.2524     | 1.321      | 1.5133     |   5.0 |  5.43
Comm    | 2.0988     | 2.9319     | 3.2992     |  16.3 | 12.06
Output  | 10.779     | 11.095     | 15.767     |  36.2 | 45.63
Modify  | 0.063969   | 4.7377     | 5.0566     |  55.4 | 19.48
Other   |            | 0.01082    |            |       |  0.04

Nlocal:    62.5 ave 70 max 55 min
Histogram: 2 0 2 1 4 0 3 1 1 2
Nghost:    1865.44 ave 1888 max 1830 min
Histogram: 1 0 1 2 1 2 2 3 1 3
Neighs:    0 ave 0 max 0 min
Histogram: 16 0 0 0 0 0 0 0 0 0
FullNghs:  18792.5 ave 21070 max 16450 min
Histogram: 2 0 1 3 3 0 3 2 0 2

Total # of neighbors = 300680
Ave neighs/atom = 300.68
Neighbor list builds = 1000
Dangerous builds not checked
Setting up Verlet run ...
  Unit style    : real
  Current step  : 17000
  Time step     : 1
Per MPI rank memory allocation (min/avg/max) = 4.577 | 4.579 | 4.58 Mbytes
Step Temp E_pair E_mol TotEng Press Volume Lx Ly Lz S/CPU 
   17000    290.49383   -10517.658            0   -9652.6171   -6661.2423    785.12882    9.2252959    9.2252959    9.2252959            0 
   17100    293.28616   -10515.351            0   -9641.9954    5316.4313    783.79721    9.2200775    9.2200775    9.2200775    34.533648 
   17200    294.86409   -10510.961            0   -9632.9064   -3252.3009    782.30539    9.2142242    9.2142242    9.2142242    42.164232 
   17300    301.15376   -10519.826            0   -9623.0412      22585.7    780.96394    9.2089545    9.2089545    9.2089545    43.889665 
   17400    299.01104   -10505.614            0   -9615.2104      18000.1    780.80737    9.2083391    9.2083391    9.2083391    33.442443 
   17500    300.57069    -10502.82            0   -9607.7713    11582.515    781.70197    9.2118545    9.2118545    9.2118545     37.63042 
   17600    289.08089   -10462.242            0   -9601.4081   -1840.8783    783.53981    9.2190681    9.2190681    9.2190681    35.333185 
   17700    293.80683   -10470.173            0   -9595.2668   -2069.0647    785.73287    9.2276612    9.2276612    9.2276612    34.866019 
   17800    303.83953   -10495.844            0   -9591.0618    3440.2027    787.62499    9.2350623    9.2350623    9.2350623    45.407747 
   17900    294.82592    -10463.95            0   -9586.0086    103.23649    789.59982    9.2427743    9.2427743    9.2427743    33.533459 
   18000    309.29011   -10503.826            0   -9582.8131   -9890.4342    791.48526    9.2501252    9.2501252    9.2501252    37.671758 
Loop time of 26.7307 on 16 procs for 1000 steps with 1000 atoms

Performance: 3.232 ns/day, 7.425 hours/ns, 37.410 timesteps/s
95.5% CPU use with 16 MPI tasks x no OpenMP threads

MPI task timing breakdown:
Section |  min time  |  avg time  |  max time  |%varavg| %total
---------------------------------------------------------------
Pair    | 3.782      | 4.0816     | 4.8388     |  11.9 | 15.27
Neigh   | 1.2173     | 1.2737     | 1.4783     |   5.4 |  4.77
Comm    | 2.0358     | 2.9932     | 3.3493     |  17.3 | 11.20
Output  | 12.512     | 12.878     | 18.3       |  39.0 | 48.18
Modify  | 0.065703   | 5.493      | 5.8623     |  59.8 | 20.55
Other   |            | 0.01069    |            |       |  0.04

Nlocal:    62.5 ave 69 max 58 min
Histogram: 2 2 3 1 4 0 2 0 1 1
Nghost:    1859.69 ave 1875 max 1836 min
Histogram: 1 0 1 0 0 5 4 2 2 1
Neighs:    0 ave 0 max 0 min
Histogram: 16 0 0 0 0 0 0 0 0 0
FullNghs:  18660 ave 20640 max 17295 min
Histogram: 1 3 3 1 4 0 2 0 1 1

Total # of neighbors = 298560
Ave neighs/atom = 298.56
Neighbor list builds = 1000
Dangerous builds not checked
Setting up Verlet run ...
  Unit style    : real
  Current step  : 18000
  Time step     : 1
Per MPI rank memory allocation (min/avg/max) = 4.577 | 4.579 | 4.58 Mbytes
Step Temp E_pair E_mol TotEng Press Volume Lx Ly Lz S/CPU 
   18000    309.29011   -10503.826            0   -9582.8131   -9890.4342    791.48526    9.2501252    9.2501252    9.2501252            0 
   18100    305.74122   -10488.756            0   -9578.3113   -14303.818    792.99096    9.2559872    9.2559872    9.2559872    48.389366 
   18200    295.83449   -10455.233            0   -9574.2886   -16428.914     794.1405    9.2604576    9.2604576    9.2604576    36.385963 
   18300     299.5077   -10462.089            0   -9570.2061    -15246.06    794.47457    9.2617559    9.2617559    9.2617559    35.409777 
   18400    306.30114   -10478.217            0   -9566.1044   -19463.327    793.62333     9.258447     9.258447     9.258447     44.02725 
   18500    299.10842   -10451.722            0   -9561.0285   -429.25569    791.61571    9.2506333    9.2506333    9.2506333    52.401827 
   18600    307.79773   -10474.402            0   -9557.8333    7234.8469    789.33413    9.2417375    9.2417375    9.2417375    49.133676 
   18700    306.69022   -10468.868            0   -9555.5966   -11304.137     786.5926    9.2310255    9.2310255    9.2310255    33.345073 
   18800    308.49915   -10472.189            0   -9553.5315    6379.2799    783.27216    9.2180182    9.2180182    9.2180182    47.045333 
   18900    307.04718   -10467.046            0   -9552.7124     8523.751    780.38872     9.206693     9.206693     9.206693    41.787466 
   19000    312.78998   -10482.788            0   -9551.3531    12009.712    777.87635    9.1968024    9.1968024    9.1968024     50.96579 
Loop time of 23.3336 on 16 procs for 1000 steps with 1000 atoms

Performance: 3.703 ns/day, 6.482 hours/ns, 42.857 timesteps/s
95.6% CPU use with 16 MPI tasks x no OpenMP threads

MPI task timing breakdown:
Section |  min time  |  avg time  |  max time  |%varavg| %total
---------------------------------------------------------------
Pair    | 3.1401     | 3.8971     | 5.0376     |  28.7 | 16.70
Neigh   | 1.0128     | 1.2244     | 1.5456     |  15.3 |  5.25
Comm    | 1.4155     | 2.8755     | 3.8375     |  43.4 | 12.32
Output  | 11.015     | 11.286     | 15.264     |  30.6 | 48.37
Modify  | 0.059468   | 4.0404     | 4.3119     |  51.1 | 17.32
Other   |            | 0.01033    |            |       |  0.04

Nlocal:    62.5 ave 68 max 58 min
Histogram: 1 1 3 1 2 2 3 0 2 1
Nghost:    1870 ave 1901 max 1840 min
Histogram: 2 1 1 2 3 1 1 2 2 1
Neighs:    0 ave 0 max 0 min
Histogram: 16 0 0 0 0 0 0 0 0 0
FullNghs:  18974.2 ave 20818 max 17503 min
Histogram: 1 2 3 2 1 3 1 2 0 1

Total # of neighbors = 303588
Ave neighs/atom = 303.588
Neighbor list builds = 1000
Dangerous builds not checked
Setting up Verlet run ...
  Unit style    : real
  Current step  : 19000
  Time step     : 1
Per MPI rank memory allocation (min/avg/max) = 4.577 | 4.579 | 4.58 Mbytes
Step Temp E_pair E_mol TotEng Press Volume Lx Ly Lz S/CPU 
   19000    312.78998   -10482.788            0   -9551.3531    12009.712    777.87635    9.1968024    9.1968024    9.1968024            0 
   19100    307.63223   -10468.857            0    -9552.781    6166.1821    776.21661    9.1902567    9.1902567    9.1902567    42.339701 
   19200    310.45064   -10482.722            0   -9558.2532    17585.615    775.38455    9.1869718    9.1869718    9.1869718     39.08409 
   19300    305.96074   -10479.526            0   -9568.4275    8162.3811     775.7512    9.1884196    9.1884196    9.1884196    49.079864 
   19400    298.93828   -10473.514            0   -9583.3267   -939.13481    777.01157    9.1933931    9.1933931    9.1933931    40.905266 
   19500    310.75861   -10526.201            0   -9600.8146    474.93605    779.18971    9.2019754    9.2019754    9.2019754    45.854582 
   19600    301.49722   -10512.612            0   -9614.8047    8069.6743    782.10671    9.2134441    9.2134441    9.2134441    41.770077 
   19700    296.94476   -10510.253            0    -9626.002   -2388.2633    785.24038    9.2257329    9.2257329    9.2257329    44.279237 
   19800    294.67644   -10512.532            0   -9635.0355    7150.7979     787.6392    9.2351178    9.2351178    9.2351178    40.271934 
   19900    289.85198    -10503.46            0   -9640.3305   -30588.119    789.17691    9.2411238    9.2411238    9.2411238    37.866519 
   20000    300.11128   -10536.938            0   -9643.2579   -16853.326    789.40091    9.2419981    9.2419981    9.2419981    48.915744 
Loop time of 23.4042 on 16 procs for 1000 steps with 1000 atoms

Performance: 3.692 ns/day, 6.501 hours/ns, 42.727 timesteps/s
96.0% CPU use with 16 MPI tasks x no OpenMP threads

MPI task timing breakdown:
Section |  min time  |  avg time  |  max time  |%varavg| %total
---------------------------------------------------------------
Pair    | 4.2272     | 4.5677     | 5.3932     |  11.8 | 19.52
Neigh   | 1.3452     | 1.4126     | 1.6179     |   5.0 |  6.04
Comm    | 2.4111     | 3.439      | 3.8467     |  16.6 | 14.69
Output  | 9.4581     | 9.7411     | 13.898     |  34.4 | 41.62
Modify  | 0.071233   | 4.2323     | 4.5164     |  52.2 | 18.08
Other   |            | 0.01138    |            |       |  0.05

Nlocal:    62.5 ave 69 max 54 min
Histogram: 1 0 0 2 2 4 4 0 0 3
Nghost:    1840.56 ave 1854 max 1827 min
Histogram: 1 1 2 1 3 1 3 2 1 1
Neighs:    0 ave 0 max 0 min
Histogram: 16 0 0 0 0 0 0 0 0 0
FullNghs:  18687.8 ave 20780 max 16021 min
Histogram: 1 0 0 3 1 6 2 0 1 2

Total # of neighbors = 299004
Ave neighs/atom = 299.004
Neighbor list builds = 1000
Dangerous builds not checked
Setting up Verlet run ...
  Unit style    : real
  Current step  : 20000
  Time step     : 1
Per MPI rank memory allocation (min/avg/max) = 4.577 | 4.579 | 4.58 Mbytes
Step Temp E_pair E_mol TotEng Press Volume Lx Ly Lz S/CPU 
   20000    300.11128   -10536.938            0   -9643.2579   -16853.326    789.40091    9.2419981    9.2419981    9.2419981            0 
   20100     292.4471   -10515.095            0   -9644.2373   -9609.0375    788.64709    9.2390553    9.2390553    9.2390553    48.159637 
   20200    299.40397   -10536.477            0   -9644.9031   -6666.3216    787.52377    9.2346667    9.2346667    9.2346667    38.526779 
   20300    290.63138   -10508.053            0   -9642.6025    2243.5902    786.25989    9.2297239    9.2297239    9.2297239    37.703002 
   20400    290.09889   -10502.487            0   -9638.6225   -9109.2555    784.67587    9.2235215    9.2235215    9.2235215    37.504924 
   20500    295.34641   -10511.975            0   -9632.4834    3350.2244    782.31326    9.2142551    9.2142551    9.2142551    38.899692 
   20600    295.88556   -10505.875            0   -9624.7781   -7541.0735    779.67967    9.2039038    9.2039038    9.2039038    35.223539 
   20700     300.9563   -10511.051            0   -9614.8541    6311.9278    776.94924    9.1931472    9.1931472    9.1931472    39.182046 
   20800    298.84618   -10494.321            0   -9604.4082    4292.1159    774.45709    9.1833074    9.1833074    9.1833074    39.507312 
   20900    299.67905   -10487.122            0   -9594.7291    21728.655    772.24271    9.1745465    9.1745465    9.1745465     35.94713 
   21000    295.16468     -10466.7            0   -9587.7501     26612.59    770.90968    9.1692645    9.1692645    9.1692645    45.939823 
Loop time of 25.4424 on 16 procs for 1000 steps with 1000 atoms

Performance: 3.396 ns/day, 7.067 hours/ns, 39.304 timesteps/s
95.6% CPU use with 16 MPI tasks x no OpenMP threads

MPI task timing breakdown:
Section |  min time  |  avg time  |  max time  |%varavg| %total
---------------------------------------------------------------
Pair    | 3.8657     | 4.3216     | 5.294      |  16.2 | 16.99
Neigh   | 1.226      | 1.3359     | 1.609      |   8.1 |  5.25
Comm    | 1.7396     | 2.9855     | 3.552      |  25.0 | 11.73
Output  | 11.786     | 12.099     | 16.722     |  34.3 | 47.56
Modify  | 0.065949   | 4.6892     | 5.0038     |  55.1 | 18.43
Other   |            | 0.01095    |            |       |  0.04

Nlocal:    62.5 ave 68 max 56 min
Histogram: 1 1 0 3 2 2 2 1 2 2
Nghost:    1879.06 ave 1896 max 1867 min
Histogram: 3 3 1 0 3 1 1 1 2 1
Neighs:    0 ave 0 max 0 min
Histogram: 16 0 0 0 0 0 0 0 0 0
FullNghs:  19152.8 ave 21048 max 16922 min
Histogram: 1 0 1 3 3 1 2 3 0 2

Total # of neighbors = 306444
Ave neighs/atom = 306.444
Neighbor list builds = 1000
Dangerous builds not checked
Setting up Verlet run ...
  Unit style    : real
  Current step  : 21000
  Time step     : 1
Per MPI rank memory allocation (min/avg/max) = 4.577 | 4.579 | 4.58 Mbytes
Step Temp E_pair E_mol TotEng Press Volume Lx Ly Lz S/CPU 
   21000    295.16468     -10466.7            0   -9587.7501     26612.59    770.90968    9.1692645    9.1692645    9.1692645            0 
   21100    300.42238    -10476.12            0   -9581.5133    28652.869    771.08493    9.1699593    9.1699593    9.1699593    41.633163 
   21200    309.60306   -10500.266            0   -9578.3212    19125.116    772.75494    9.1765745    9.1765745    9.1765745    37.806744 
   21300    298.83393   -10465.804            0   -9575.9279    13449.172    775.40239    9.1870422    9.1870422    9.1870422    39.482831 
   21400    307.45837     -10489.6            0   -9574.0412    3594.8633     779.0181    9.2012999    9.2012999    9.2012999    37.685098 
   21500    308.33923   -10489.757            0   -9571.5759   -6527.9365    782.71751    9.2158419    9.2158419    9.2158419    48.954742 
   21600    304.61357   -10478.663            0   -9571.5759   -12095.774    785.91342    9.2283679    9.2283679    9.2283679    35.310837 
   21700    302.70209   -10471.239            0   -9569.8435   -8776.2416     788.6309    9.2389921    9.2389921    9.2389921     47.23246 
   21800    300.82648   -10466.962            0   -9571.1516   -19216.939    790.44458    9.2460692    9.2460692    9.2460692    42.322902 
   21900     296.0294   -10451.352            0   -9569.8269   -14660.948    791.13031    9.2487422    9.2487422    9.2487422    41.817231 
   22000    303.73977   -10472.575            0   -9568.0899   -22907.292    791.01952    9.2483105    9.2483105    9.2483105    39.567975 
Loop time of 24.5067 on 16 procs for 1000 steps with 1000 atoms

Performance: 3.526 ns/day, 6.807 hours/ns, 40.805 timesteps/s
95.8% CPU use with 16 MPI tasks x no OpenMP threads

MPI task timing breakdown:
Section |  min time  |  avg time  |  max time  |%varavg| %total
---------------------------------------------------------------
Pair    | 4.0546     | 4.4842     | 4.9106     |  11.7 | 18.30
Neigh   | 1.2516     | 1.3889     | 1.4894     |   6.7 |  5.67
Comm    | 2.8349     | 3.3594     | 3.9269     |  17.6 | 13.71
Output  | 10.329     | 10.638     | 15.188     |  36.0 | 43.41
Modify  | 0.071719   | 4.6252     | 4.9371     |  54.7 | 18.87
Other   |            | 0.01132    |            |       |  0.05

Nlocal:    62.5 ave 67 max 55 min
Histogram: 2 0 0 0 2 3 1 3 1 4
Nghost:    1843.25 ave 1861 max 1824 min
Histogram: 1 0 4 2 0 3 1 2 1 2
Neighs:    0 ave 0 max 0 min
Histogram: 16 0 0 0 0 0 0 0 0 0
FullNghs:  18627.1 ave 20037 max 16252 min
Histogram: 1 1 0 1 2 2 1 3 1 4

Total # of neighbors = 298034
Ave neighs/atom = 298.034
Neighbor list builds = 1000
Dangerous builds not checked
Setting up Verlet run ...
  Unit style    : real
  Current step  : 22000
  Time step     : 1
Per MPI rank memory allocation (min/avg/max) = 4.577 | 4.579 | 4.58 Mbytes
Step Temp E_pair E_mol TotEng Press Volume Lx Ly Lz S/CPU 
   22000    303.73977   -10472.575            0   -9568.0899   -22907.292    791.01952    9.2483105    9.2483105    9.2483105            0 
   22100    304.71732   -10474.183            0    -9566.787   -5726.8659    790.36671    9.2457656    9.2457656    9.2457656    50.871975 
   22200     302.7233   -10466.795            0   -9565.3368    12010.004    789.30947    9.2416412    9.2416412    9.2416412    41.998159 
   22300    304.78916   -10473.111            0   -9565.5014   -3589.1515    788.02389    9.2366211    9.2366211    9.2366211    34.453139 
   22400    300.38627   -10460.131            0   -9565.6325   -1425.6781    786.40237    9.2302813    9.2302813    9.2302813    47.128036 
   22500    296.22094   -10446.044            0   -9563.9481    12089.031    784.89397     9.224376     9.224376     9.224376    38.064462 
   22600    304.61906   -10470.477            0   -9563.3734    6972.6075    783.93839     9.220631     9.220631     9.220631    42.710924 
   22700    302.99411   -10465.496            0   -9563.2312   -5027.8793    783.00646    9.2169758    9.2169758    9.2169758    36.375829 
   22800    300.32713   -10455.808            0   -9561.4851   -10606.988    781.75168    9.2120498    9.2120498    9.2120498     42.36111 
   22900    305.93526   -10471.561            0   -9560.5383    14474.577    780.27993    9.2062651    9.2062651    9.2062651    39.256666 
   23000    293.32846   -10432.932            0   -9559.4503    14866.758    779.39512     9.202784     9.202784     9.202784    44.443552 
Loop time of 24.2467 on 16 procs for 1000 steps with 1000 atoms

Performance: 3.563 ns/day, 6.735 hours/ns, 41.243 timesteps/s
95.9% CPU use with 16 MPI tasks x no OpenMP threads

MPI task timing breakdown:
Section |  min time  |  avg time  |  max time  |%varavg| %total
---------------------------------------------------------------
Pair    | 4.3768     | 4.7224     | 5.4456     |  12.2 | 19.48
Neigh   | 1.3562     | 1.4743     | 1.6456     |   6.7 |  6.08
Comm    | 2.3794     | 3.2709     | 3.7363     |  19.0 | 13.49
Output  | 9.0406     | 9.3992     | 14.695     |  44.6 | 38.76
Modify  | 0.068583   | 5.3683     | 5.7296     |  59.1 | 22.14
Other   |            | 0.01174    |            |       |  0.05

Nlocal:    62.5 ave 70 max 58 min
Histogram: 3 2 3 1 1 3 0 1 1 1
Nghost:    1862.81 ave 1889 max 1838 min
Histogram: 2 1 2 0 3 4 0 1 2 1
Neighs:    0 ave 0 max 0 min
Histogram: 16 0 0 0 0 0 0 0 0 0
FullNghs:  18936.9 ave 21252 max 17469 min
Histogram: 2 3 3 1 2 2 0 1 1 1

Total # of neighbors = 302990
Ave neighs/atom = 302.99
Neighbor list builds = 1000
Dangerous builds not checked
Setting up Verlet run ...
  Unit style    : real
  Current step  : 23000
  Time step     : 1
Per MPI rank memory allocation (min/avg/max) = 4.577 | 4.579 | 4.58 Mbytes
Step Temp E_pair E_mol TotEng Press Volume Lx Ly Lz S/CPU 
   23000    293.32846   -10432.932            0   -9559.4503    14866.758    779.39512     9.202784     9.202784     9.202784            0 
   23100    301.53518   -10459.483            0   -9561.5629    5003.7778     779.1395    9.2017778    9.2017778    9.2017778    38.530673 
   23200    305.82582   -10474.369            0    -9563.672    11919.449    779.28495    9.2023503    9.2023503    9.2023503    40.746053 
   23300    302.64647   -10467.759            0   -9566.5298    4524.6102     780.2261    9.2060534    9.2060534    9.2060534    39.944446 
   23400    307.97185   -10490.043            0   -9572.9557    3927.3995     781.2909    9.2102395    9.2102395    9.2102395    42.695557 
   23500     313.6321   -10513.557            0   -9579.6145    13963.705    782.65375    9.2155917    9.2155917    9.2155917    38.727146 
   23600    296.22677   -10468.722            0   -9586.6096    17216.304    784.86294    9.2242544    9.2242544    9.2242544     41.60097 
   23700    306.05479   -10505.488            0    -9594.109    602.31712    788.09436    9.2368964    9.2368964    9.2368964    39.005639 
   23800    293.51835   -10474.328            0   -9600.2809   -9331.9852    791.50836    9.2502152    9.2502152    9.2502152    39.785404 
   23900    298.32726   -10493.994            0   -9605.6264   -15012.563    794.16618    9.2605574    9.2605574    9.2605574    53.650074 
   24000    302.20182   -10511.252            0   -9611.3464   -16559.909    795.92468    9.2673875    9.2673875    9.2673875    37.019356 
Loop time of 24.5236 on 16 procs for 1000 steps with 1000 atoms

Performance: 3.523 ns/day, 6.812 hours/ns, 40.777 timesteps/s
95.7% CPU use with 16 MPI tasks x no OpenMP threads

MPI task timing breakdown:
Section |  min time  |  avg time  |  max time  |%varavg| %total
---------------------------------------------------------------
Pair    | 3.9525     | 4.2613     | 4.8029     |   8.3 | 17.38
Neigh   | 1.2506     | 1.3281     | 1.4753     |   4.7 |  5.42
Comm    | 2.2263     | 2.9137     | 3.2974     |  13.0 | 11.88
Output  | 11.334     | 11.627     | 15.939     |  32.7 | 47.41
Modify  | 0.068454   | 4.3827     | 4.678      |  53.2 | 17.87
Other   |            | 0.01094    |            |       |  0.04

Nlocal:    62.5 ave 66 max 57 min
Histogram: 1 0 1 2 0 3 4 0 4 1
Nghost:    1831.69 ave 1850 max 1806 min
Histogram: 1 1 0 3 1 2 2 1 2 3
Neighs:    0 ave 0 max 0 min
Histogram: 16 0 0 0 0 0 0 0 0 0
FullNghs:  18539 ave 19729 max 16917 min
Histogram: 1 0 2 1 1 3 3 0 4 1

Total # of neighbors = 296624
Ave neighs/atom = 296.624
Neighbor list builds = 1000
Dangerous builds not checked
Setting up Verlet run ...
  Unit style    : real
  Current step  : 24000
  Time step     : 1
Per MPI rank memory allocation (min/avg/max) = 4.577 | 4.579 | 4.58 Mbytes
Step Temp E_pair E_mol TotEng Press Volume Lx Ly Lz S/CPU 
   24000    302.20182   -10511.252            0   -9611.3464   -16559.909    795.92468    9.2673875    9.2673875    9.2673875            0 
   24100    305.16426   -10524.739            0   -9616.0123   -15217.335    796.92987    9.2712872    9.2712872    9.2712872    33.919117 
   24200    298.14012   -10507.684            0   -9619.8736   -17472.255    796.74354    9.2705646    9.2705646    9.2705646    42.665069 
   24300    303.53639     -10527.4            0   -9623.5202   -4637.6404    795.09615    9.2641707    9.2641707    9.2641707     40.45811 
   24400    294.37113   -10502.244            0   -9625.6573   -21733.973    792.34588    9.2534767    9.2534767    9.2534767    55.377524 
   24500    292.91515   -10500.604            0    -9628.353   -1730.6298     787.9662    9.2363957    9.2363957    9.2363957    40.433859 
   24600    300.83948   -10524.784            0   -9628.9356    3978.3066    782.64046    9.2155395    9.2155395    9.2155395    35.396193 
   24700    306.01277   -10540.103            0    -9628.849    10393.172    777.17879    9.1940525    9.1940525    9.1940525    38.172465 
   24800    296.71707   -10508.591            0   -9625.0184    16629.117    772.09258    9.1739519    9.1739519    9.1739519    44.396397 
   24900    295.35706   -10498.411            0   -9618.8877    18711.681    768.09266    9.1580822    9.1580822    9.1580822     37.80124 
   25000    297.82628   -10498.947            0   -9612.0714    22516.321    765.68617    9.1485079    9.1485079    9.1485079    41.335508 
Loop time of 24.8047 on 16 procs for 1000 steps with 1000 atoms

Performance: 3.483 ns/day, 6.890 hours/ns, 40.315 timesteps/s
95.6% CPU use with 16 MPI tasks x no OpenMP threads

MPI task timing breakdown:
Section |  min time  |  avg time  |  max time  |%varavg| %total
---------------------------------------------------------------
Pair    | 3.8696     | 4.2439     | 4.6134     |  11.4 | 17.11
Neigh   | 1.1951     | 1.3208     | 1.4203     |   7.1 |  5.33
Comm    | 2.6351     | 3.0978     | 3.5998     |  17.9 | 12.49
Output  | 11.196     | 11.504     | 16.047     |  34.6 | 46.38
Modify  | 0.082686   | 4.6272     | 4.9383     |  54.5 | 18.65
Other   |            | 0.0108     |            |       |  0.04

Nlocal:    62.5 ave 71 max 55 min
Histogram: 1 2 1 3 0 4 3 0 1 1
Nghost:    1892.75 ave 1915 max 1879 min
Histogram: 3 0 3 3 2 3 0 1 0 1
Neighs:    0 ave 0 max 0 min
Histogram: 16 0 0 0 0 0 0 0 0 0
FullNghs:  19284.9 ave 22134 max 16962 min
Histogram: 2 1 1 3 2 3 2 1 0 1

Total # of neighbors = 308558
Ave neighs/atom = 308.558
Neighbor list builds = 1000
Dangerous builds not checked
Setting up Verlet run ...
  Unit style    : real
  Current step  : 25000
  Time step     : 1
Per MPI rank memory allocation (min/avg/max) = 4.577 | 4.579 | 4.58 Mbytes
Step Temp E_pair E_mol TotEng Press Volume Lx Ly Lz S/CPU 
   25000    297.82628   -10498.947            0   -9612.0714    22516.321    765.68617    9.1485079    9.1485079    9.1485079            0 
   25100    294.25714   -10478.849            0   -9602.6014    17075.504     765.0814    9.1460986    9.1460986    9.1460986    33.721311 
   25200    298.13101   -10479.333            0     -9591.55    25402.438    766.24353    9.1507272    9.1507272    9.1507272    38.151531 
   25300    295.53758   -10459.454            0   -9579.3936    10826.793    769.30964    9.1629164    9.1629164    9.1629164    37.815522 
   25400    311.43401   -10495.101            0   -9567.7039    19459.984    773.84402    9.1808835    9.1808835    9.1808835    51.659127 
   25500    303.89633   -10463.431            0   -9558.4796    22675.341    779.56428    9.2034497    9.2034497    9.2034497    47.677077 
   25600    317.36392   -10498.734            0   -9553.6781   -11561.762    785.95179    9.2285181    9.2285181    9.2285181    42.985472 
   25700    305.20658   -10456.796            0   -9547.9426   -12933.794    791.76989    9.2512339    9.2512339    9.2512339    48.481489 
   25800    310.66927   -10471.106            0   -9545.9862   -25653.608    796.63563     9.270146     9.270146     9.270146    46.699936 
   25900    302.44044   -10445.752            0   -9545.1357   -28530.479    799.71955    9.2820928    9.2820928    9.2820928    49.326297 
   26000    307.17726   -10460.559            0   -9545.8379   -29658.654    800.99275     9.287016     9.287016     9.287016    42.779287 
Loop time of 23.1595 on 16 procs for 1000 steps with 1000 atoms

Performance: 3.731 ns/day, 6.433 hours/ns, 43.179 timesteps/s
95.8% CPU use with 16 MPI tasks x no OpenMP threads

MPI task timing breakdown:
Section |  min time  |  avg time  |  max time  |%varavg| %total
---------------------------------------------------------------
Pair    | 4.1332     | 4.4193     | 4.9616     |   8.5 | 19.08
Neigh   | 1.3001     | 1.3616     | 1.5004     |   3.8 |  5.88
Comm    | 2.3141     | 2.9944     | 3.3409     |  12.8 | 12.93
Output  | 9.778      | 10.065     | 14.287     |  34.4 | 43.46
Modify  | 0.084638   | 4.3082     | 4.5964     |  52.5 | 18.60
Other   |            | 0.01113    |            |       |  0.05

Nlocal:    62.5 ave 68 max 55 min
Histogram: 1 0 1 1 3 3 2 3 0 2
Nghost:    1814.56 ave 1838 max 1789 min
Histogram: 1 1 2 1 2 2 4 1 1 1
Neighs:    0 ave 0 max 0 min
Histogram: 16 0 0 0 0 0 0 0 0 0
FullNghs:  18415.9 ave 20120 max 16145 min
Histogram: 1 0 1 0 5 3 0 4 0 2

Total # of neighbors = 294654
Ave neighs/atom = 294.654
Neighbor list builds = 1000
Dangerous builds not checked
Setting up Verlet run ...
  Unit style    : real
  Current step  : 26000
  Time step     : 1
Per MPI rank memory allocation (min/avg/max) = 4.577 | 4.579 | 4.58 Mbytes
Step Temp E_pair E_mol TotEng Press Volume Lx Ly Lz S/CPU 
   26000    307.17726   -10460.559            0   -9545.8379   -29658.654    800.99275     9.287016     9.287016     9.287016            0 
   26100    308.79224   -10466.996            0   -9547.4656   -16315.985    800.89005    9.2866191    9.2866191    9.2866191     42.74222 
   26200    304.03565   -10454.028            0   -9548.6622   -25054.218    799.39334    9.2808305    9.2808305    9.2808305    45.796384 
   26300    308.75697   -10470.749            0   -9551.3231   -8713.2483    796.41536    9.2692916    9.2692916    9.2692916    42.246619 
   26400    303.44289   -10458.564            0   -9554.9624   -6252.3734    792.57489    9.2543681    9.2543681    9.2543681    48.990394 
   26500    306.82573   -10474.896            0   -9561.2212   -7594.0163    788.48143    9.2384084    9.2384084    9.2384084    35.754101 
   26600    301.70271   -10469.235            0   -9570.8155   -2319.3041    784.02686    9.2209779    9.2209779    9.2209779    46.236876 
   26700    292.62126    -10454.55            0   -9583.1734    16055.881    779.72783    9.2040933    9.2040933    9.2040933    41.509951 
   26800    304.42585   -10506.355            0   -9599.8268    24369.424    776.69504    9.1921445    9.1921445    9.1921445    42.714211 
   26900     296.3498   -10499.216            0   -9616.7369    29724.216    775.39407    9.1870093    9.1870093    9.1870093    43.451034 
   27000    296.50445   -10513.488            0   -9630.5484    14372.588    776.12271    9.1898862    9.1898862    9.1898862     37.38491 
Loop time of 23.6177 on 16 procs for 1000 steps with 1000 atoms

Performance: 3.658 ns/day, 6.560 hours/ns, 42.341 timesteps/s
95.7% CPU use with 16 MPI tasks x no OpenMP threads

MPI task timing breakdown:
Section |  min time  |  avg time  |  max time  |%varavg| %total
---------------------------------------------------------------
Pair    | 3.9071     | 4.2217     | 5.0928     |  12.5 | 17.88
Neigh   | 1.2381     | 1.3229     | 1.5547     |   5.9 |  5.60
Comm    | 1.7775     | 2.8787     | 3.2577     |  19.2 | 12.19
Output  | 10.616     | 10.902     | 15.112     |  32.9 | 46.16
Modify  | 0.068362   | 4.2811     | 4.5685     |  52.6 | 18.13
Other   |            | 0.0109     |            |       |  0.05

Nlocal:    62.5 ave 69 max 56 min
Histogram: 1 1 0 5 2 1 3 2 0 1
Nghost:    1874.75 ave 1886 max 1860 min
Histogram: 1 0 2 2 2 2 0 3 3 1
Neighs:    0 ave 0 max 0 min
Histogram: 16 0 0 0 0 0 0 0 0 0
FullNghs:  19020.2 ave 21097 max 16972 min
Histogram: 1 1 0 3 5 0 3 2 0 1

Total # of neighbors = 304324
Ave neighs/atom = 304.324
Neighbor list builds = 1000
Dangerous builds not checked
Setting up Verlet run ...
  Unit style    : real
  Current step  : 27000
  Time step     : 1
Per MPI rank memory allocation (min/avg/max) = 4.577 | 4.579 | 4.58 Mbytes
Step Temp E_pair E_mol TotEng Press Volume Lx Ly Lz S/CPU 
   27000    296.50445   -10513.488            0   -9630.5484    14372.588    776.12271    9.1898862    9.1898862    9.1898862            0 
   27100    292.45887   -10509.326            0   -9638.4332    8069.3012    778.22346    9.1981702    9.1981702    9.1981702    36.841161 
   27200    288.88244   -10503.294            0   -9643.0517    8995.3965    780.63858    9.2076755    9.2076755    9.2076755    41.226706 
   27300    296.66053   -10530.151            0   -9646.7463   -5360.3949    783.14661    9.2175257    9.2175257    9.2175257    39.576325 
   27400    305.63242   -10558.236            0   -9648.1149   -15565.805    785.21409    9.2256299    9.2256299    9.2256299    53.601934 
   27500     294.1503   -10521.948            0   -9646.0187   -10104.445      786.437    9.2304168    9.2304168    9.2304168    39.330016 
   27600    295.15168    -10521.26            0   -9642.3489   -3839.9355    787.01787    9.2326888    9.2326888    9.2326888    39.409603 
   27700    300.63622    -10533.88            0   -9638.6369   -13372.667    786.73183    9.2315702    9.2315702    9.2315702    37.654105 
   27800    300.33869   -10528.153            0   -9633.7957    -7987.446    785.56839    9.2270173    9.2270173    9.2270173    36.726777 
   27900    307.82856   -10545.279            0   -9628.6186   -12716.046    783.60339    9.2193174    9.2193174    9.2193174    37.163438 
   28000    303.85268   -10527.242            0   -9622.4204   -2959.5117    781.01258    9.2091457    9.2091457    9.2091457    43.525108 
Loop time of 24.9793 on 16 procs for 1000 steps with 1000 atoms

Performance: 3.459 ns/day, 6.939 hours/ns, 40.033 timesteps/s
[...]
  808700    290.35048   -11484.808            0   -10620.194    7530.7574    749.36314    9.0830306    9.0830306    9.0830306    40.381105 
  808800    307.06044   -11533.217            0   -10618.843    -6581.559    749.02833    9.0816776    9.0816776    9.0816776     38.18898 
  808900    294.16754   -11488.301            0    -10612.32    6093.3592    748.66138    9.0801943    9.0801943    9.0801943    42.306576 
  809000    304.44613   -11513.315            0   -10606.726    4230.4694    748.30958    9.0787718    9.0787718    9.0787718    44.270651 
  809100    298.48897   -11485.097            0   -10596.247    5919.0042    748.25227    9.0785401    9.0785401    9.0785401    32.586106 
  809200    309.55917   -11507.029            0   -10585.215   -1469.7919    748.69958    9.0803488    9.0803488    9.0803488    37.651442 
  809300    300.24395   -11466.546            0   -10572.471    2227.5374    749.42471    9.0832793    9.0832793    9.0832793    39.856798 
  809400    303.57927   -11465.856            0   -10561.849     -618.697    750.20561    9.0864331    9.0864331    9.0864331    45.385082 
  809500    305.59199   -11462.232            0   -10552.232   -3729.8404    750.81889    9.0889085    9.0889085    9.0889085    42.803037 
  809600    311.33614   -11472.389            0   -10545.283   -4532.2048    751.16785    9.0903163    9.0903163    9.0903163    45.927633 
  809700    303.94513   -11445.225            0   -10540.128   -72.080654    751.14195    9.0902119    9.0902119    9.0902119    48.379256 
  809800    309.82575   -11460.017            0   -10537.409    813.94868    750.88916     9.089192     9.089192     9.089192    41.691031 
  809900    321.27645   -11493.623            0   -10536.916    2215.3694    750.57119    9.0879089    9.0879089    9.0879089     31.16772 
  810000    307.87812   -11453.289            0   -10536.481    2790.5924    750.26069    9.0866555    9.0866555    9.0866555    35.676407 
  810100    309.65623    -11458.66            0   -10536.556   -6023.6489    749.90557    9.0852216    9.0852216    9.0852216    41.332492 
  810200    304.50197   -11444.715            0    -10537.96    10526.922    749.42124    9.0832653    9.0832653    9.0832653    42.463684 
  810300    295.77875   -11421.494            0   -10540.716    8560.9109    749.08669    9.0819135    9.0819135    9.0819135     41.74738 
  810400    300.33188   -11438.753            0   -10544.416   -1189.7776    749.04842    9.0817588    9.0817588    9.0817588     39.32695 
  810500    308.26546   -11467.835            0   -10549.873   -3778.3875    749.28542    9.0827165    9.0827165    9.0827165     40.68505 
  810600    304.92581   -11460.523            0   -10552.506   -700.71369    749.75391    9.0846091    9.0846091    9.0846091    35.971346 
  810700    303.04251   -11460.691            0   -10558.282   -1368.3542    750.33871    9.0869705    9.0869705    9.0869705    48.463004 
  810800    298.18455   -11450.245            0   -10562.303    -8281.784    750.86674    9.0891016    9.0891016    9.0891016    44.427783 
  810900    298.83405   -11458.664            0   -10568.788   -5884.1544    751.15791    9.0902762    9.0902762    9.0902762     36.48502 
  811000    295.49094   -11455.691            0    -10575.77    -2538.133    751.06623    9.0899064    9.0899064    9.0899064    44.851649 
  811100    292.42372   -11455.311            0   -10584.523    4934.8695    750.58366    9.0879592    9.0879592    9.0879592    49.633396 
  811200    286.08788   -11447.023            0   -10595.102   -981.23594    749.86641    9.0850635    9.0850635    9.0850635    39.615138 
  811300    295.45957   -11490.324            0   -10610.496    11450.176    749.08275    9.0818976    9.0818976    9.0818976    49.534869 
  811400    297.37071   -11513.057            0   -10627.537    4782.1447     748.2842    9.0786692    9.0786692    9.0786692    46.924764 
  811500    297.90872    -11530.89            0   -10643.769    3619.1713    747.71552    9.0763687    9.0763687    9.0763687    40.363836 
  811600    277.79809   -11479.899            0   -10652.664   -2323.6933    747.43876    9.0752488    9.0752488    9.0752488    41.893487 
  811700    282.39932    -11500.63            0   -10659.693    5173.2758    747.38059    9.0750133    9.0750133    9.0750133    43.959245 
  811800    279.92318   -11494.469            0   -10660.906    6833.1804    747.56797    9.0757717    9.0757717    9.0757717    45.847756 
  811900     287.1234   -11514.762            0   -10659.757    5341.4303     748.0392    9.0776782    9.0776782    9.0776782    40.112655 
  812000    288.54067   -11515.639            0   -10656.414   -2868.9126    748.82716    9.0808645    9.0808645    9.0808645    44.760317 
  812100    278.93017   -11481.263            0   -10650.657    751.20218    749.90846    9.0852333    9.0852333    9.0852333    45.128157 
  812200    287.33173   -11499.195            0    -10643.57   -9546.5605    750.68419    9.0883649    9.0883649    9.0883649    40.277381 
  812300    284.45929   -11482.888            0   -10635.817   -9255.8358    750.81041    9.0888743    9.0888743    9.0888743    33.655649 
  812400    291.98169   -11496.884            0   -10627.413   -9184.1386    750.34126    9.0869808    9.0869808    9.0869808    42.872309 
  812500     286.5353   -11470.767            0   -10617.513   -2133.0648    749.51871    9.0836591    9.0836591    9.0836591    45.250193 
  812600    303.09684   -11512.474            0   -10609.903    12673.105    748.57411    9.0798415    9.0798415    9.0798415    42.383356 
  812700    295.06642   -11478.509            0   -10599.852    9553.5742    747.94237    9.0772865    9.0772865    9.0772865    44.599287 
  812800    295.46192   -11471.882            0   -10592.047    12985.031    747.78798    9.0766619    9.0766619    9.0766619    43.997355 
  812900    296.82832   -11468.342            0   -10584.437    10692.715    748.07418    9.0778198    9.0778198    9.0778198     56.63872 
  813000    295.89742   -11459.585            0   -10578.453    6995.3818    748.79865    9.0807493    9.0807493    9.0807493    40.498652 
  813100    304.21724   -11478.339            0   -10572.432   -5451.8153     749.9066    9.0852258    9.0852258    9.0852258    40.936776 
  813200    293.42663   -11439.564            0    -10565.79   -3992.2062    751.02049    9.0897219    9.0897219    9.0897219    40.522322 
  813300    300.05433   -11454.558            0   -10561.048   -9049.4296    751.98035    9.0935927    9.0935927    9.0935927    41.549657 
  813400    300.30945   -11450.793            0   -10556.523   -10460.265    752.46928    9.0955631    9.0955631    9.0955631    39.147438 
  813500    298.64241   -11440.446            0    -10551.14    -9959.958    752.34018    9.0950429    9.0950429    9.0950429    42.855784 
  813600    300.21785   -11440.968            0    -10546.97   -11770.841    751.61228    9.0921087    9.0921087    9.0921087    45.983683 
  813700    303.73387   -11447.911            0   -10543.444   -3457.0147    750.43746    9.0873691    9.0873691    9.0873691    39.876284 
  813800    306.86651   -11453.841            0   -10540.045    8936.7262    749.20148    9.0823774    9.0823774    9.0823774    49.585744 
  813900    306.63993    -11451.62            0   -10538.499      8597.08    748.36152    9.0789819    9.0789819    9.0789819    46.744332 
  814000    301.25105   -11433.762            0   -10536.688    9367.4289    747.99917    9.0775163    9.0775163    9.0775163    46.527621 
  814100    306.76269   -11451.341            0   -10537.854    7734.2835    748.25869     9.078566     9.078566     9.078566    48.241882 
  814200    307.87767   -11455.379            0   -10538.572   -1765.1085    749.12033    9.0820494    9.0820494    9.0820494    37.102558 
  814300    314.56958   -11479.436            0   -10542.701   -89.111865    750.36499    9.0870766    9.0870766    9.0870766    46.681601 
  814400    305.53043   -11456.926            0   -10547.108    -3364.367    751.63804    9.0922126    9.0922126    9.0922126    34.614316 
  814500    301.92325   -11454.063            0   -10554.987   -13098.894    752.53371    9.0958227    9.0958227    9.0958227    40.541628 
  814600    294.43864    -11444.11            0   -10567.322   -11604.772    752.69985     9.096492     9.096492     9.096492    37.444595 
  814700    292.76563    -11452.55            0   -10580.744   -8338.9853    752.18271    9.0944083    9.0944083    9.0944083    42.386176 
  814800    292.18878   -11464.374            0   -10594.285   -7240.2645    751.00796    9.0896713    9.0896713    9.0896713    38.759328 
  814900    281.04815   -11441.543            0    -10604.63    10309.896    749.27568    9.0826772    9.0826772    9.0826772    44.402891 
  815000    295.64742    -11495.72            0   -10615.332    4282.7252     747.4615    9.0753408    9.0753408    9.0753408    42.719005 
  815100     296.5006   -11502.225            0   -10619.297     16465.43    745.96522     9.069281     9.069281     9.069281     49.54829 
  815200    302.43998   -11523.609            0   -10622.994    14564.809    745.33833    9.0667398    9.0667398    9.0667398    42.727403 
  815300    289.75964   -11487.367            0   -10624.513    17769.539    745.76393    9.0684652    9.0684652    9.0684652    48.265442 
  815400     298.8782   -11514.721            0   -10624.713    10800.759    747.20637    9.0743081    9.0743081    9.0743081    36.648903 
  815500    290.95339   -11490.848            0   -10624.438   -1628.3168    749.39784    9.0831708    9.0831708    9.0831708    41.904042 
  815600    293.45792    -11494.16            0   -10620.293   -12034.151     751.5967     9.092046     9.092046     9.092046    41.874029 
  815700    281.97303   -11452.403            0   -10612.735     -17339.7    753.07786    9.0980145    9.0980145    9.0980145     42.58837 
  815800    291.90427    -11475.24            0   -10605.999   -11554.767    753.46865     9.099588     9.099588     9.099588    43.184266 
  815900    291.29512   -11463.712            0   -10596.285   -11683.929    752.66634    9.0963571    9.0963571    9.0963571    40.245435 
  816000    299.92788   -11478.663            0   -10585.529   -6288.4256    750.93015    9.0893574    9.0893574    9.0893574    39.051055 
  816100     300.7713   -11470.284            0   -10574.639    4869.1658    748.74889    9.0805481    9.0805481    9.0805481     41.37389 
  816200    298.96402   -11455.319            0   -10565.055    12981.499    746.78042    9.0725835    9.0725835    9.0725835    34.736544 
  816300    311.71297    -11485.75            0   -10557.522    17584.339    745.67228    9.0680937    9.0680937    9.0680937    36.792549 
  816400    296.84949   -11436.308            0   -10552.341    20381.789    745.82897    9.0687288    9.0687288    9.0687288    41.418982 
  816500    314.07169   -11486.846            0   -10551.594    10684.101    747.23032    9.0744051    9.0744051    9.0744051    40.352363 
  816600    299.15901   -11440.853            0   -10550.008    681.33496    749.65246    9.0841993    9.0841993    9.0841993    45.698001 
  816700    293.98117   -11424.197            0   -10548.771   -11613.048    752.31425    9.0949384    9.0949384    9.0949384    45.455933 
  816800    292.87741   -11421.182            0   -10549.043   -12169.447    754.51174    9.1037852    9.1037852    9.1037852    48.809302 
  816900    305.02787   -11457.601            0    -10549.28   -22520.685    755.64933    9.1083582    9.1083582    9.1083582    42.476633 
  817000    301.36959   -11447.627            0     -10550.2   -25469.941    755.44586    9.1075406    9.1075406    9.1075406    43.362565 
  817100    310.69012    -11477.25            0   -10552.068   -14987.196    753.81122    9.1009669    9.1009669    9.1009669    47.966147 
  817200    301.00897   -11448.211            0   -10551.858   -6040.5987    751.17798    9.0903572    9.0903572    9.0903572    42.453774 
  817300    314.09576   -11489.228            0   -10553.904    1624.7868    748.25493    9.0785508    9.0785508    9.0785508    41.212502 
  817400    300.38889   -11448.511            0   -10554.004    17759.407    745.74263    9.0683789    9.0683789    9.0683789    40.356913 
  817500    303.72139   -11460.983            0   -10556.552    26025.246    744.42217    9.0630234    9.0630234    9.0630234    35.766669 
  817600     299.8135   -11453.703            0    -10560.91    33927.996    744.60778    9.0637765    9.0637765    9.0637765    43.564813 
  817700    295.33428   -11447.294            0   -10567.839    19924.321    746.30595    9.0706617    9.0706617    9.0706617    35.253079 
  817800    300.53641   -11472.315            0   -10577.368    4647.2669    749.13958    9.0821272    9.0821272    9.0821272    43.653342 
  817900    296.01548   -11469.078            0   -10587.595   -15217.805    752.37236    9.0951726    9.0951726    9.0951726    33.973283 
  818000    303.45531   -11502.367            0   -10598.729   -29656.443    755.02432    9.1058463    9.1058463    9.1058463    41.775406 
  818100    294.63667   -11484.959            0   -10607.581    -28451.34    756.19149     9.110536     9.110536     9.110536    45.171682 
  818200    291.64196   -11485.844            0   -10617.384   -25244.962    755.39786    9.1073477    9.1073477    9.1073477    43.911571 
  818300    301.88216   -11524.437            0   -10625.483   -15485.718    752.80278    9.0969066    9.0969066    9.0969066      38.9007 
  818400    302.45031   -11532.257            0   -10631.612    2587.1248     749.0705    9.0818481    9.0818481    9.0818481    37.180241 
  818500    287.93546   -11489.889            0   -10632.466    15587.393    745.18127    9.0661029    9.0661029    9.0661029    43.738225 
  818600    292.29295   -11503.378            0   -10632.979    25262.184    742.24789    9.0541911    9.0541911    9.0541911     45.59131 
  818700    286.28533   -11483.525            0   -10631.017    34822.266    741.09434    9.0494982    9.0494982    9.0494982    35.326679 
  818800    292.71218   -11499.719            0   -10628.072    34696.907    742.19182    9.0539631    9.0539631    9.0539631    33.690217 
  818900    290.71573   -11488.419            0   -10622.717    20945.401    745.21242    9.0662292    9.0662292    9.0662292    46.707053 
  819000    291.18906   -11477.145            0   -10610.033   -1327.8708    749.37143    9.0830641    9.0830641    9.0830641    46.853408 
  819100    310.03908   -11514.299            0   -10591.055   -13539.982    753.62132    9.1002026    9.1002026    9.1002026    38.001109 
  819200    296.78984   -11451.595            0   -10567.805    -30337.28    756.82158    9.1130657    9.1130657    9.1130657    37.890197 
  819300    298.62579   -11440.695            0   -10551.438   -37353.329    757.96159    9.1176391    9.1176391    9.1176391    46.490271 
  819400    295.90987   -11423.456            0   -10542.287   -20487.197    756.95024    9.1135821    9.1135821    9.1135821    45.300287 
  819500     296.1877   -11418.481            0   -10536.485   -13979.967    754.32684    9.1030415    9.1030415    9.1030415    31.710723 
  819600    300.94798   -11429.898            0   -10533.726   -204.26253    750.71023      9.08847      9.08847      9.08847    39.557072 
  819700    293.29974   -11404.408            0   -10531.012    8008.6789    747.26353    9.0745395    9.0745395    9.0745395    46.195208 
  819800    303.06901   -11431.812            0   -10529.324    25966.683    744.92625    9.0650686    9.0650686    9.0650686    52.782914 
  819900    308.11103   -11448.235            0   -10530.733     29309.01    744.28169    9.0624532    9.0624532    9.0624532    44.268542 
  820000    305.26512   -11443.684            0   -10534.657    23475.768    745.39727    9.0669788    9.0669788    9.0669788    42.832293 
  820100     299.3624   -11429.736            0   -10538.286    16969.799    747.89831    9.0771083    9.0771083    9.0771083    30.463257 
  820200    304.43205   -11452.437            0   -10545.891    -13798.15    751.05958    9.0898796    9.0898796    9.0898796    50.162187 
  820300    299.75154   -11444.719            0    -10552.11   -11394.799    753.84868    9.1011176    9.1011176    9.1011176    41.642475 
  820400    302.26184   -11459.629            0   -10559.545    -20586.18    755.58692    9.1081074    9.1081074    9.1081074    45.094674 
  820500    304.85455   -11474.379            0   -10566.575   -29363.429    755.82591    9.1090676    9.1090676    9.1090676    51.140269 
  820600    302.14878   -11473.713            0   -10573.965   -11429.072    754.56074    9.1039822    9.1039822    9.1039822    46.362968 
  820700    295.26062   -11459.888            0   -10580.652   -7412.1689    752.20028    9.0944791    9.0944791    9.0944791     43.22874 
  820800    302.67892   -11489.805            0   -10588.479   -381.67502    749.35331    9.0829909    9.0829909    9.0829909    47.963026 
  820900    296.00333   -11473.743            0   -10592.295    13606.417    746.85781    9.0728969    9.0728969    9.0728969    40.753713 
  821000    304.91731   -11505.925            0   -10597.933    18826.881    745.25995     9.066422     9.066422     9.066422    45.659532 
  821100    290.28177   -11465.568            0   -10601.159    28677.456    744.79268    9.0645267    9.0645267    9.0645267    48.513745 
  821200    304.56234   -11513.124            0   -10606.189    21106.081    745.70073     9.068209     9.068209     9.068209    37.888563 
  821300    284.83002    -11455.92            0   -10607.745    5932.0962     747.7016    9.0763124    9.0763124    9.0763124    41.736585 
  821400    293.58913   -11485.034            0   -10610.776   -1896.3128    750.06888    9.0858811    9.0858811    9.0858811    38.289616 
  821500    287.78982    -11468.12            0   -10611.131   -11825.013    752.06774    9.0939449    9.0939449    9.0939449    40.257453 
  821600    289.97145   -11474.833            0   -10611.348   -14002.066    753.16299    9.0983574    9.0983574    9.0983574    40.282603 
  821700    287.04609   -11464.327            0   -10609.553   -18334.107    753.14138    9.0982703    9.0982703    9.0982703    50.576791 
  821800    297.82537   -11491.554            0   -10604.681   -13706.853    752.09089    9.0940382    9.0940382    9.0940382     47.47003 
  821900    299.32073   -11487.282            0   -10595.956    3098.3301    750.48253     9.087551     9.087551     9.087551    48.274467 
  822000    295.55266   -11463.357            0   -10583.251    2638.7537    748.86478    9.0810166    9.0810166    9.0810166    36.622534 
Loop time of 2409.51 on 16 procs for 100000 steps with 1000 atoms

Performance: 3.586 ns/day, 6.693 hours/ns, 41.502 timesteps/s
95.7% CPU use with 16 MPI tasks x no OpenMP threads

MPI task timing breakdown:
Section |  min time  |  avg time  |  max time  |%varavg| %total
---------------------------------------------------------------
Pair    | 393.79     | 420.76     | 506.25     | 137.9 | 17.46
Neigh   | 129.22     | 137.96     | 162.42     |  71.4 |  5.73
Comm    | 197.71     | 307.53     | 340.91     | 208.8 | 12.76
Output  | 1051.4     | 1082.1     | 1534.6     | 355.2 | 44.91
Modify  | 7.3768     | 460.08     | 490.98     | 544.9 | 19.09
Other   |            | 1.11       |            |       |  0.05

Nlocal:    62.5 ave 68 max 56 min
Histogram: 1 1 1 1 1 5 0 4 1 1
Nghost:    1926.75 ave 1944 max 1905 min
Histogram: 3 1 0 0 1 2 3 3 1 2
Neighs:    0 ave 0 max 0 min
Histogram: 16 0 0 0 0 0 0 0 0 0
FullNghs:  19638.5 ave 21371 max 17550 min
Histogram: 1 1 0 2 2 2 2 4 1 1

Total # of neighbors = 314216
Ave neighs/atom = 314.216
Neighbor list builds = 100000
Dangerous builds not checked
Total wall time: 5:21:27
