LAMMPS (16 Mar 2018)
Reading data file ...
  orthogonal box = (-4.72941 -4.72941 -4.72941) to (4.72941 4.72941 4.72941)
  2 by 2 by 4 MPI processor grid
  reading atoms ...
  1000 atoms
Reading potential file /home/fs01/ajm529/lammps-16Mar18/potentials/sw_potentials/AG/eps2.23.sw with DATE: 2008-01-29
Neighbor list info ...
  update every 1 steps, delay 0 steps, check no
  max neighbors/atom: 2000, page size: 100000
  master list distance cutoff = 3.836
  ghost atom cutoff = 3.836
  binsize = 1.918, bins = 5 5 5
  1 neighbor lists, perpetual/occasional/extra = 1 0 0
  (1) pair sw, perpetual
      attributes: full, newton on
      pair build: full/bin/atomonly
      stencil: full/bin/3d
      bin: standard
Setting up Verlet run ...
  Unit style    : real
  Current step  : 0
  Time step     : 1
Per MPI rank memory allocation (min/avg/max) = 3.517 | 3.519 | 3.52 Mbytes
Step Temp E_pair E_mol TotEng Press Volume Lx Ly Lz S/CPU 
       0          300   -10046.297            0   -9152.9483   -33706.942    846.27578    9.4588275    9.4588275    9.4588275            0 
     100    324.13727   -10123.581            0   -9158.3556   -55180.586    844.36569    9.4517057    9.4517057    9.4517057    57.540273 
     200    331.88001   -10162.607            0   -9174.3253   -44437.702      838.438    9.4295359    9.4295359    9.4295359    61.329401 
     300    341.52026   -10215.942            0   -9198.9529   -23588.615    829.32768    9.3952582    9.3952582    9.3952582    57.828929 
     400    353.46012   -10280.281            0   -9227.7373   -17243.523    818.09966    9.3526656    9.3526656    9.3526656    58.798263 
     500    335.60077   -10248.204            0   -9248.8421    307.32792    806.60642    9.3086612    9.3086612    9.3086612    70.333841 
     600    334.86494   -10265.046            0   -9267.8757    10971.308    796.71741    9.2704632    9.2704632    9.2704632    56.307018 
     700    341.74966    -10306.92            0   -9289.2477    9563.7087    789.09742    9.2408135    9.2408135    9.2408135    63.509765 
     800     332.0933   -10299.245            0   -9310.3283    10885.575    784.01731    9.2209405    9.2209405    9.2209405     57.41023 
     900    326.86654   -10307.564            0    -9334.211    25622.575     781.2961    9.2102599    9.2102599    9.2102599    58.205077 
    1000    338.29525   -10367.212            0   -9359.8261    17200.556    780.83957    9.2084656    9.2084656    9.2084656     53.55865 
Loop time of 16.8978 on 16 procs for 1000 steps with 1000 atoms

Performance: 5.113 ns/day, 4.694 hours/ns, 59.179 timesteps/s
94.8% CPU use with 16 MPI tasks x no OpenMP threads

MPI task timing breakdown:
Section |  min time  |  avg time  |  max time  |%varavg| %total
---------------------------------------------------------------
Pair    | 2.0847     | 2.2697     | 2.462      |   6.8 | 13.43
Neigh   | 0.7431     | 0.78912    | 0.84015    |   2.9 |  4.67
Comm    | 0.79429    | 1.0371     | 1.2552     |  12.5 |  6.14
Output  | 8.6536     | 8.9122     | 12.739     |  33.1 | 52.74
Modify  | 0.053727   | 3.8816     | 4.1406     |  50.2 | 22.97
Other   |            | 0.008095   |            |       |  0.05

Nlocal:    62.5 ave 68 max 59 min
Histogram: 3 2 3 1 2 0 2 0 2 1
Nghost:    1846.12 ave 1866 max 1825 min
Histogram: 1 1 1 3 3 1 1 1 3 1
Neighs:    0 ave 0 max 0 min
Histogram: 16 0 0 0 0 0 0 0 0 0
FullNghs:  18915.1 ave 20462 max 17695 min
Histogram: 2 3 3 1 0 2 1 0 1 3

Total # of neighbors = 302642
Ave neighs/atom = 302.642
Neighbor list builds = 1000
Dangerous builds not checked
Setting up Verlet run ...
  Unit style    : real
  Current step  : 1000
  Time step     : 1
Per MPI rank memory allocation (min/avg/max) = 3.519 | 4.411 | 4.58 Mbytes
Step Temp E_pair E_mol TotEng Press Volume Lx Ly Lz S/CPU 
    1000    338.29525   -10367.212            0   -9359.8261    17200.556    780.83957    9.2084656    9.2084656    9.2084656            0 
    1100    329.59809   -10366.314            0    -9384.827    26843.626    781.87732    9.2125432    9.2125432    9.2125432    60.444384 
    1200    314.30894    -10343.95            0   -9407.9914    19565.881    784.18186    9.2215855    9.2215855    9.2215855    49.074385 
    1300    321.67506   -10387.709            0   -9429.8152    13410.273    787.49016    9.2345353    9.2345353    9.2345353     56.01352 
    1400    320.48016   -10405.775            0   -9451.4401   -5687.6801    791.12531    9.2487227    9.2487227    9.2487227    57.274011 
    1500     320.6486   -10426.726            0   -9471.8887    -11017.26    794.45391    9.2616757    9.2616757    9.2616757    39.381293 
    1600    310.99186   -10415.984            0   -9489.9037   -2269.9612      797.183    9.2722687    9.2722687    9.2722687    51.669647 
    1700    299.23278   -10397.489            0   -9506.4245   -18576.135    799.36377    9.2807161    9.2807161    9.2807161    55.670149 
    1800    304.42534   -10429.336            0   -9522.8092   -13166.851     800.4427    9.2848897    9.2848897    9.2848897    50.000434 
    1900    302.31344   -10437.339            0   -9537.1011   -21923.672    800.12866    9.2836753    9.2836753    9.2836753    62.920953 
    2000    295.93945   -10431.587            0   -9550.3302   -4027.1673    798.33091    9.2767172    9.2767172    9.2767172    53.516031 
Loop time of 18.9523 on 16 procs for 1000 steps with 1000 atoms

Performance: 4.559 ns/day, 5.265 hours/ns, 52.764 timesteps/s
94.8% CPU use with 16 MPI tasks x no OpenMP threads

MPI task timing breakdown:
Section |  min time  |  avg time  |  max time  |%varavg| %total
---------------------------------------------------------------
Pair    | 2.1745     | 2.3068     | 2.5247     |   6.0 | 12.17
Neigh   | 0.74228    | 0.7796     | 0.84178    |   2.9 |  4.11
Comm    | 0.76897    | 1.0494     | 1.219      |  11.2 |  5.54
Output  | 10.252     | 10.536     | 14.738     |  33.4 | 55.59
Modify  | 0.071013   | 4.2726     | 4.556      |  52.5 | 22.54
Other   |            | 0.008025   |            |       |  0.04

Nlocal:    62.5 ave 70 max 57 min
Histogram: 1 3 1 3 1 3 3 0 0 1
Nghost:    1832.62 ave 1848 max 1820 min
Histogram: 3 0 2 0 5 2 1 2 0 1
Neighs:    0 ave 0 max 0 min
Histogram: 16 0 0 0 0 0 0 0 0 0
FullNghs:  18495 ave 20932 max 16740 min
Histogram: 1 1 3 3 1 4 2 0 0 1

Total # of neighbors = 295920
Ave neighs/atom = 295.92
Neighbor list builds = 1000
Dangerous builds not checked
Setting up Verlet run ...
  Unit style    : real
  Current step  : 2000
  Time step     : 1
Per MPI rank memory allocation (min/avg/max) = 3.769 | 4.477 | 4.58 Mbytes
Step Temp E_pair E_mol TotEng Press Volume Lx Ly Lz S/CPU 
    2000    295.93945   -10431.587            0   -9550.3302   -4027.1673    798.33091    9.2767172    9.2767172    9.2767172            0 
    2100    308.00401   -10481.325            0   -9564.1414    -6252.412     795.7293    9.2666292    9.2666292    9.2666292    68.105566 
    2200    293.26745   -10449.916            0   -9576.6152   -11996.458    792.51895    9.2541504    9.2541504    9.2541504    55.047027 
    2300    289.02874   -10448.601            0    -9587.923   -4232.0852    789.01772    9.2405024    9.2405024    9.2405024     70.32367 
    2400    295.57458    -10478.65            0   -9598.4792   -8855.6757    785.45139    9.2265592    9.2265592    9.2265592    54.166526 
    2500    300.63783   -10503.452            0   -9608.2042    2387.5139    781.93193    9.2127577    9.2127577    9.2127577    60.585024 
    2600    296.81927   -10500.438            0    -9616.561    4949.6067    778.56069    9.1994986    9.1994986    9.1994986    57.260118 
    2700    292.14131   -10493.766            0   -9623.8193    9393.8378    775.96147    9.1892497    9.1892497    9.1892497    60.189852 
    2800    303.60822   -10535.221            0   -9631.1275    16284.064    774.04835    9.1816915    9.1816915    9.1816915    57.261568 
    2900    302.27404   -10536.647            0   -9636.5264     12365.08    773.11493    9.1779993    9.1779993    9.1779993    57.848963 
    3000    286.47333   -10493.934            0   -9640.8656    16786.881    772.60314    9.1759736    9.1759736    9.1759736    49.552591 
Loop time of 17.1046 on 16 procs for 1000 steps with 1000 atoms

Performance: 5.051 ns/day, 4.751 hours/ns, 58.464 timesteps/s
95.0% CPU use with 16 MPI tasks x no OpenMP threads

MPI task timing breakdown:
Section |  min time  |  avg time  |  max time  |%varavg| %total
---------------------------------------------------------------
Pair    | 2.3148     | 2.4355     | 2.5884     |   4.8 | 14.24
Neigh   | 0.76721    | 0.8058     | 0.86333    |   2.5 |  4.71
Comm    | 0.82227    | 1.021      | 1.1807     |   9.3 |  5.97
Output  | 8.6823     | 8.9398     | 12.751     |  32.9 | 52.27
Modify  | 0.08261    | 3.8943     | 4.1524     |  49.9 | 22.77
Other   |            | 0.008185   |            |       |  0.05

Nlocal:    62.5 ave 67 max 58 min
Histogram: 1 2 0 3 1 3 3 1 1 1
Nghost:    1888.25 ave 1918 max 1862 min
Histogram: 1 1 3 3 2 2 1 1 0 2
Neighs:    0 ave 0 max 0 min
Histogram: 16 0 0 0 0 0 0 0 0 0
FullNghs:  19080.4 ave 20372 max 17716 min
Histogram: 2 1 0 3 0 4 0 4 0 2

Total # of neighbors = 305286
Ave neighs/atom = 305.286
Neighbor list builds = 1000
Dangerous builds not checked
Setting up Verlet run ...
  Unit style    : real
  Current step  : 3000
  Time step     : 1
Per MPI rank memory allocation (min/avg/max) = 4.576 | 4.578 | 4.58 Mbytes
Step Temp E_pair E_mol TotEng Press Volume Lx Ly Lz S/CPU 
    3000    286.47333   -10493.934            0   -9640.8656    16786.881    772.60314    9.1759736    9.1759736    9.1759736            0 
    3100    292.64719   -10516.963            0     -9645.51    16371.183    772.40191    9.1751769    9.1751769    9.1751769     48.44607 
    3200    297.40996    -10535.36            0   -9649.7238    1728.8625    772.62311    9.1760527    9.1760527    9.1760527    55.519317 
    3300    289.30753   -10513.297            0   -9651.7882      15969.6    773.29351    9.1787059    9.1787059    9.1787059     60.02996 
    3400    305.35697   -10563.683            0   -9654.3824     6922.057    774.30813    9.1827185    9.1827185    9.1827185      54.7648 
    3500    297.57477   -10540.821            0   -9654.6941   -4527.2502    775.40808    9.1870647    9.1870647    9.1870647    51.207047 
    3600    303.20512   -10557.806            0   -9654.9125    4632.7709    776.50678    9.1914018    9.1914018    9.1914018    52.379277 
    3700    287.21757   -10509.196            0    -9653.911    11539.612    777.47945     9.195238     9.195238     9.195238    72.613056 
    3800    298.39546   -10540.763            0    -9652.192    13383.548    778.58189    9.1995821    9.1995821    9.1995821    50.559987 
    3900    295.94609   -10529.425            0   -9648.1479     4768.934    779.68079    9.2039082    9.2039082    9.2039082    46.484919 
    4000    298.31117   -10532.133            0   -9643.8128   -11506.882    780.74096     9.208078     9.208078     9.208078    58.929299 
Loop time of 18.4224 on 16 procs for 1000 steps with 1000 atoms

Performance: 4.690 ns/day, 5.117 hours/ns, 54.282 timesteps/s
94.9% CPU use with 16 MPI tasks x no OpenMP threads

MPI task timing breakdown:
Section |  min time  |  avg time  |  max time  |%varavg| %total
---------------------------------------------------------------
Pair    | 2.3247     | 2.5028     | 2.7387     |   6.4 | 13.59
Neigh   | 0.77417    | 0.81731    | 0.87973    |   3.0 |  4.44
Comm    | 0.74372    | 1.0429     | 1.2628     |  12.4 |  5.66
Output  | 9.8031     | 10.068     | 13.99      |  31.9 | 54.65
Modify  | 0.061929   | 3.9831     | 4.2495     |  50.7 | 21.62
Other   |            | 0.008265   |            |       |  0.04

Nlocal:    62.5 ave 68 max 56 min
Histogram: 1 1 1 1 2 4 2 1 1 2
Nghost:    1876.5 ave 1915 max 1844 min
Histogram: 1 3 0 2 4 2 0 2 1 1
Neighs:    0 ave 0 max 0 min
Histogram: 16 0 0 0 0 0 0 0 0 0
FullNghs:  18902.8 ave 20733 max 16705 min
Histogram: 1 1 1 1 4 1 3 1 1 2

Total # of neighbors = 302444
Ave neighs/atom = 302.444
Neighbor list builds = 1000
Dangerous builds not checked
Setting up Verlet run ...
  Unit style    : real
  Current step  : 4000
  Time step     : 1
Per MPI rank memory allocation (min/avg/max) = 4.576 | 4.578 | 4.58 Mbytes
Step Temp E_pair E_mol TotEng Press Volume Lx Ly Lz S/CPU 
    4000    298.31117   -10532.133            0   -9643.8128   -11506.882    780.74096     9.208078     9.208078     9.208078            0 
    4100    296.94109   -10522.286            0   -9638.0458     12747.31    781.53984    9.2112176    9.2112176    9.2112176    56.746184 
    4200    295.47011   -10510.362            0   -9630.5026    628.06261    782.41312    9.2146471    9.2146471    9.2146471    66.344163 
    4300    299.96503   -10515.539            0   -9622.2947   -2334.4182     783.2219    9.2178211    9.2178211    9.2178211    55.479276 
    4400     301.6036   -10511.714            0   -9613.5898   -12775.951    783.75574    9.2199149    9.2199149    9.2199149    65.883706 
    4500    304.78127   -10513.381            0   -9605.7946   -3716.3198    784.09448     9.221243     9.221243     9.221243    46.129264 
    4600    300.82916   -10493.226            0   -9597.4086   -2257.7592     784.0828    9.2211972    9.2211972    9.2211972    62.927346 
    4700    299.51467   -10482.778            0    -9590.874   -10346.692    783.64953    9.2194984    9.2194984    9.2194984    58.965373 
    4800    308.49027   -10503.854            0   -9585.2227    6172.3005    783.06634    9.2172108    9.2172108    9.2172108    69.569263 
    4900    300.78064   -10476.406            0   -9580.7323     4456.646    782.81026    9.2162059    9.2162059    9.2162059    42.432462 
    5000    302.93527   -10479.952            0   -9577.8622    1516.4027    782.95182    9.2167614    9.2167614    9.2167614    53.070646 
Loop time of 17.7211 on 16 procs for 1000 steps with 1000 atoms

Performance: 4.876 ns/day, 4.923 hours/ns, 56.430 timesteps/s
94.9% CPU use with 16 MPI tasks x no OpenMP threads

MPI task timing breakdown:
Section |  min time  |  avg time  |  max time  |%varavg| %total
---------------------------------------------------------------
Pair    | 2.2751     | 2.4105     | 2.5872     |   4.8 | 13.60
Neigh   | 0.76593    | 0.80026    | 0.84318    |   2.2 |  4.52
Comm    | 0.80905    | 1.0281     | 1.19       |   9.1 |  5.80
Output  | 8.9932     | 9.2763     | 13.43      |  35.2 | 52.35
Modify  | 0.043785   | 4.1978     | 4.4814     |  52.3 | 23.69
Other   |            | 0.00816    |            |       |  0.05

Nlocal:    62.5 ave 69 max 57 min
Histogram: 2 3 2 0 0 3 2 2 1 1
Nghost:    1867.62 ave 1881 max 1858 min
Histogram: 2 1 1 6 1 1 2 0 1 1
Neighs:    0 ave 0 max 0 min
Histogram: 16 0 0 0 0 0 0 0 0 0
FullNghs:  18844.5 ave 20971 max 17145 min
Histogram: 2 3 2 0 1 2 2 2 1 1

Total # of neighbors = 301512
Ave neighs/atom = 301.512
Neighbor list builds = 1000
Dangerous builds not checked
Setting up Verlet run ...
  Unit style    : real
  Current step  : 5000
  Time step     : 1
Per MPI rank memory allocation (min/avg/max) = 4.576 | 4.578 | 4.58 Mbytes
Step Temp E_pair E_mol TotEng Press Volume Lx Ly Lz S/CPU 
    5000    302.93527   -10479.952            0   -9577.8622    1516.4027    782.95182    9.2167614    9.2167614    9.2167614            0 
    5100    299.89161   -10467.976            0   -9574.9502    15601.595    783.46525    9.2187756    9.2187756    9.2187756    36.644406 
    5200    298.52991   -10463.779            0   -9574.8079     3213.077    784.69872     9.223611     9.223611     9.223611    68.273245 
    5300    303.33146   -10479.198            0   -9575.9287   -1199.9394    786.22884    9.2296023    9.2296023    9.2296023    48.077656 
    5400    312.74386   -10508.644            0    -9577.346   -2558.9543    787.59557    9.2349473    9.2349473    9.2349473    65.265262 
    5500    300.62744   -10474.371            0   -9579.1536    6254.6325    788.87723     9.239954     9.239954     9.239954    49.498558 
    5600     295.4994   -10463.886            0   -9583.9393   -2277.0528    790.06609    9.2445932    9.2445932    9.2445932    46.323916 
    5700     302.8033    -10491.45            0   -9589.7535     6747.147    790.72357    9.2471569    9.2471569    9.2471569    53.791735 
    5800    298.83206     -10486.4            0   -9596.5292   -11080.476    791.18991    9.2489744    9.2489744    9.2489744    56.526482 
    5900     301.4879   -10504.896            0   -9607.1169   -3873.9245    791.34632    9.2495839    9.2495839    9.2495839    64.609203 
    6000     289.8519   -10480.657            0   -9617.5271    -13385.75    790.90372    9.2478591    9.2478591    9.2478591    42.713058 
Loop time of 19.5019 on 16 procs for 1000 steps with 1000 atoms

Performance: 4.430 ns/day, 5.417 hours/ns, 51.277 timesteps/s
94.8% CPU use with 16 MPI tasks x no OpenMP threads

MPI task timing breakdown:
Section |  min time  |  avg time  |  max time  |%varavg| %total
---------------------------------------------------------------
Pair    | 2.2051     | 2.3881     | 2.6181     |   6.3 | 12.25
Neigh   | 0.75577    | 0.79832    | 0.85293    |   2.6 |  4.09
Comm    | 0.74785    | 1.0308     | 1.2578     |  11.6 |  5.29
Output  | 9.8933     | 10.228     | 15.198     |  40.1 | 52.45
Modify  | 0.076344   | 5.0486     | 5.3913     |  57.1 | 25.89
Other   |            | 0.008129   |            |       |  0.04

Nlocal:    62.5 ave 68 max 58 min
Histogram: 1 0 3 2 1 5 2 0 0 2
Nghost:    1846.19 ave 1860 max 1827 min
Histogram: 1 1 0 3 2 2 1 0 3 3
Neighs:    0 ave 0 max 0 min
Histogram: 16 0 0 0 0 0 0 0 0 0
FullNghs:  18666.1 ave 20472 max 17438 min
Histogram: 1 3 2 1 5 2 0 0 1 1

Total # of neighbors = 298658
Ave neighs/atom = 298.658
Neighbor list builds = 1000
Dangerous builds not checked
Setting up Verlet run ...
  Unit style    : real
  Current step  : 6000
  Time step     : 1
Per MPI rank memory allocation (min/avg/max) = 4.576 | 4.578 | 4.58 Mbytes
Step Temp E_pair E_mol TotEng Press Volume Lx Ly Lz S/CPU 
    6000     289.8519   -10480.657            0   -9617.5271    -13385.75    790.90372    9.2478591    9.2478591    9.2478591            0 
    6100     297.3364    -10512.49            0   -9627.0727   -10774.899    789.99575    9.2443189    9.2443189    9.2443189    45.984598 
    6200    286.92191   -10490.586            0   -9636.1813   -10931.932    788.60344    9.2388849    9.2388849    9.2388849    69.183763 
    6300    285.28942   -10492.928            0   -9643.3845   -11943.387    786.64352    9.2312247    9.2312247    9.2312247    51.838321 
    6400    281.33771   -10485.317            0   -9647.5409    1910.1786    784.16358    9.2215138    9.2215138    9.2215138    64.236023 
    6500    300.81197   -10546.645            0   -9650.8778   -13980.305    781.52669    9.2111659    9.2111659    9.2111659    41.292929 
    6600    286.29302   -10502.705            0   -9650.1735    13461.781    778.93341    9.2009664    9.2009664    9.2009664    62.565794 
    6700     301.2267   -10547.076            0   -9650.0745     -257.669    776.93132    9.1930766    9.1930766    9.1930766    48.465371 
    6800    293.78741   -10521.782            0    -9646.933    2767.0845    775.49221    9.1873969    9.1873969    9.1873969     45.47805 
    6900    295.02475   -10524.664            0    -9646.131    5093.4867    774.62833    9.1839841    9.1839841    9.1839841    48.124448 
    7000    296.29445   -10525.521            0   -9643.2072    13579.522    774.40931    9.1831185    9.1831185    9.1831185     52.42759 
Loop time of 19.3735 on 16 procs for 1000 steps with 1000 atoms

Performance: 4.460 ns/day, 5.382 hours/ns, 51.617 timesteps/s
94.8% CPU use with 16 MPI tasks x no OpenMP threads

MPI task timing breakdown:
Section |  min time  |  avg time  |  max time  |%varavg| %total
---------------------------------------------------------------
Pair    | 2.379      | 2.4828     | 2.6519     |   5.0 | 12.82
Neigh   | 0.78103    | 0.81651    | 0.87058    |   2.5 |  4.21
Comm    | 0.76074    | 0.98395    | 1.1216     |  10.0 |  5.08
Output  | 10.385     | 10.678     | 15.027     |  34.4 | 55.12
Modify  | 0.05512    | 4.404      | 4.6976     |  53.5 | 22.73
Other   |            | 0.00826    |            |       |  0.04

Nlocal:    62.5 ave 67 max 57 min
Histogram: 1 0 1 1 3 3 2 0 2 3
Nghost:    1863.81 ave 1892 max 1836 min
Histogram: 1 1 1 2 4 1 3 1 1 1
Neighs:    0 ave 0 max 0 min
Histogram: 16 0 0 0 0 0 0 0 0 0
FullNghs:  19041.6 ave 20486 max 17400 min
Histogram: 1 1 1 3 2 2 1 2 1 2

Total # of neighbors = 304666
Ave neighs/atom = 304.666
Neighbor list builds = 1000
Dangerous builds not checked
Setting up Verlet run ...
  Unit style    : real
  Current step  : 7000
  Time step     : 1
Per MPI rank memory allocation (min/avg/max) = 4.576 | 4.578 | 4.58 Mbytes
Step Temp E_pair E_mol TotEng Press Volume Lx Ly Lz S/CPU 
    7000    296.29445   -10525.521            0   -9643.2072    13579.522    774.40931    9.1831185    9.1831185    9.1831185            0 
    7100    295.32501   -10516.809            0   -9637.3813    12937.107    774.88432    9.1849957    9.1849957    9.1849957    59.329827 
    7200    296.17809   -10511.607            0   -9629.6389    15677.705    776.33884    9.1907391    9.1907391    9.1907391    64.825508 
    7300    302.08174   -10517.217            0   -9617.6693    15613.128    778.65541    9.1998716    9.1998716    9.1998716    50.041468 
    7400    287.92171   -10457.975            0   -9600.5938    6278.2936     781.7119    9.2118935    9.2118935    9.2118935    65.779603 
    7500    305.43127   -10495.416            0   -9585.8941    8261.9479    785.23662    9.2257181    9.2257181    9.2257181    56.326854 
    7600    294.95912   -10448.462            0   -9570.1246   -6821.6087    788.75268    9.2394677    9.2394677    9.2394677    71.089535 
    7700    309.89567   -10482.536            0   -9559.7193   -12638.421    791.30786    9.2494341    9.2494341    9.2494341    56.885859 
    7800    297.21589    -10436.48            0   -9551.4216   -19244.524    792.91923    9.2557081    9.2557081    9.2557081    66.833607 
    7900    311.58518   -10474.764            0    -9546.917   -10465.066    793.82707    9.2592392    9.2592392    9.2592392    55.611211 
    8000    306.22657    -10456.43            0   -9544.5393   -17636.481    793.86657    9.2593927    9.2593927    9.2593927    72.494131 
Loop time of 16.3605 on 16 procs for 1000 steps with 1000 atoms

Performance: 5.281 ns/day, 4.545 hours/ns, 61.123 timesteps/s
95.0% CPU use with 16 MPI tasks x no OpenMP threads

MPI task timing breakdown:
Section |  min time  |  avg time  |  max time  |%varavg| %total
---------------------------------------------------------------
Pair    | 2.2472     | 2.404      | 2.653      |   6.3 | 14.69
Neigh   | 0.77469    | 0.80043    | 0.86906    |   2.7 |  4.89
Comm    | 0.7042     | 1.0216     | 1.195      |  11.8 |  6.24
Output  | 8.1715     | 8.4186     | 12.075     |  32.5 | 51.46
Modify  | 0.050926   | 3.7077     | 3.955      |  49.0 | 22.66
Other   |            | 0.008161   |            |       |  0.05

Nlocal:    62.5 ave 69 max 58 min
Histogram: 5 2 0 1 1 1 3 1 1 1
Nghost:    1838.19 ave 1862 max 1811 min
Histogram: 2 0 0 4 3 1 0 2 0 4
Neighs:    0 ave 0 max 0 min
Histogram: 16 0 0 0 0 0 0 0 0 0
FullNghs:  18574.1 ave 20696 max 17216 min
Histogram: 4 3 0 1 2 1 3 0 1 1

Total # of neighbors = 297186
Ave neighs/atom = 297.186
Neighbor list builds = 1000
Dangerous builds not checked
Setting up Verlet run ...
  Unit style    : real
  Current step  : 8000
  Time step     : 1
Per MPI rank memory allocation (min/avg/max) = 4.576 | 4.578 | 4.58 Mbytes
Step Temp E_pair E_mol TotEng Press Volume Lx Ly Lz S/CPU 
    8000    306.22657    -10456.43            0   -9544.5393   -17636.481    793.86657    9.2593927    9.2593927    9.2593927            0 
    8100    305.46721   -10452.979            0   -9543.3499   -4378.0028    792.99362    9.2559975    9.2559975    9.2559975    46.232838 
    8200    297.57775   -10430.031            0   -9543.8955   -7854.7943     791.3853    9.2497358    9.2497358    9.2497358     62.18346 
    8300    303.45824   -10450.813            0   -9547.1662     5529.045    789.19966    9.2412126    9.2412126    9.2412126    63.242062 
    8400    299.39323    -10441.71            0   -9550.1682    4114.2718    787.18419    9.2333392    9.2333392    9.2333392    57.314248 
    8500    310.84898   -10483.445            0     -9557.79   -12647.941    785.21377    9.2256286    9.2256286    9.2256286    68.444395 
    8600    302.77301   -10467.526            0   -9565.9196    19300.766    783.24391    9.2179074    9.2179074    9.2179074    59.373427 
    8700    319.52988   -10528.448            0   -9576.9424    1491.9766    782.12471    9.2135148    9.2135148    9.2135148    44.278216 
    8800     307.7025   -10504.827            0   -9588.5415   -4674.1272    781.85766     9.212466     9.212466     9.212466    45.428502 
    8900    301.50961   -10498.127            0   -9600.2827    1070.9041     782.3543    9.2144162    9.2144162    9.2144162    50.775854 
    9000     301.5747   -10508.606            0   -9610.5677    3570.6137    783.23413    9.2178691    9.2178691    9.2178691     52.61613 
Loop time of 18.5721 on 16 procs for 1000 steps with 1000 atoms

Performance: 4.652 ns/day, 5.159 hours/ns, 53.844 timesteps/s
94.9% CPU use with 16 MPI tasks x no OpenMP threads

MPI task timing breakdown:
Section |  min time  |  avg time  |  max time  |%varavg| %total
---------------------------------------------------------------
Pair    | 2.3104     | 2.4548     | 2.6281     |   6.2 | 13.22
Neigh   | 0.77859    | 0.81525    | 0.86009    |   2.8 |  4.39
Comm    | 0.77245    | 0.99022    | 1.1686     |  12.1 |  5.33
Output  | 9.9189     | 10.191     | 14.222     |  32.6 | 54.87
Modify  | 0.080652   | 4.1125     | 4.3851     |  51.3 | 22.14
Other   |            | 0.008235   |            |       |  0.04

Nlocal:    62.5 ave 67 max 56 min
Histogram: 1 0 1 1 3 1 4 0 3 2
Nghost:    1867.12 ave 1898 max 1841 min
Histogram: 1 1 3 1 3 2 2 1 1 1
Neighs:    0 ave 0 max 0 min
Histogram: 16 0 0 0 0 0 0 0 0 0
FullNghs:  18836 ave 20198 max 16748 min
Histogram: 1 0 0 2 3 1 4 0 3 2

Total # of neighbors = 301376
Ave neighs/atom = 301.376
Neighbor list builds = 1000
Dangerous builds not checked
Setting up Verlet run ...
  Unit style    : real
  Current step  : 9000
  Time step     : 1
Per MPI rank memory allocation (min/avg/max) = 4.576 | 4.578 | 4.58 Mbytes
Step Temp E_pair E_mol TotEng Press Volume Lx Ly Lz S/CPU 
    9000     301.5747   -10508.606            0   -9610.5677    3570.6137    783.23413    9.2178691    9.2178691    9.2178691            0 
    9100    299.96944   -10511.793            0    -9618.535    7407.8429    784.04609    9.2210533    9.2210533    9.2210533    64.836229 
    9200    307.88738   -10542.364            0   -9625.5277   -3269.3767    784.67886    9.2235333    9.2235333    9.2235333    50.487934 
    9300    294.60015   -10506.903            0   -9629.6339   -14455.661    784.81272    9.2240577    9.2240577    9.2240577    53.288853 
    9400    301.06753   -10530.004            0   -9633.4766   -1284.0438    783.83585     9.220229     9.220229     9.220229    63.889651 
    9500    293.19936   -10507.794            0   -9634.6961    7254.2012    782.12031    9.2134975    9.2134975    9.2134975    46.921009 
    9600    307.14055   -10550.946            0   -9636.3343     1851.307    780.09683     9.205545     9.205545     9.205545     67.18805 
    9700    295.51267   -10515.101            0   -9635.1152     13818.57    778.16498    9.1979397    9.1979397    9.1979397    50.489081 
    9800    296.65378   -10517.481            0   -9634.0962     9411.602    777.07565    9.1936458    9.1936458    9.1936458    43.864077 
    9900    298.62189   -10522.524            0   -9633.2795     3944.004    776.43408    9.1911149    9.1911149    9.1911149    45.100911 
   10000    297.07836     -10514.7            0   -9630.0514    13090.639    776.03658    9.1895462    9.1895462    9.1895462    46.468901 
Loop time of 19.214 on 16 procs for 1000 steps with 1000 atoms

Performance: 4.497 ns/day, 5.337 hours/ns, 52.045 timesteps/s
94.8% CPU use with 16 MPI tasks x no OpenMP threads

MPI task timing breakdown:
Section |  min time  |  avg time  |  max time  |%varavg| %total
---------------------------------------------------------------
Pair    | 2.2928     | 2.418      | 2.5528     |   4.9 | 12.58
Neigh   | 0.76216    | 0.79988    | 0.85094    |   2.5 |  4.16
Comm    | 0.8724     | 1.0517     | 1.2146     |   9.5 |  5.47
Output  | 10.17      | 10.475     | 14.878     |  35.1 | 54.52
Modify  | 0.057555   | 4.4617     | 4.7669     |  53.8 | 23.22
Other   |            | 0.008173   |            |       |  0.04

Nlocal:    62.5 ave 69 max 56 min
Histogram: 1 0 2 3 3 0 5 0 1 1
Nghost:    1872.5 ave 1902 max 1852 min
Histogram: 2 2 2 4 0 0 4 1 0 1
Neighs:    0 ave 0 max 0 min
Histogram: 16 0 0 0 0 0 0 0 0 0
FullNghs:  19021.5 ave 20967 max 17090 min
Histogram: 1 1 3 0 4 1 2 2 1 1

Total # of neighbors = 304344
Ave neighs/atom = 304.344
Neighbor list builds = 1000
Dangerous builds not checked
Setting up Verlet run ...
  Unit style    : real
  Current step  : 10000
  Time step     : 1
Per MPI rank memory allocation (min/avg/max) = 4.576 | 4.578 | 4.58 Mbytes
Step Temp E_pair E_mol TotEng Press Volume Lx Ly Lz S/CPU 
   10000    297.07836     -10514.7            0   -9630.0514    13090.639    776.03658    9.1895462    9.1895462    9.1895462            0 
   10100    307.69179   -10543.842            0   -9627.5881     486.2397    775.96047    9.1892458    9.1892458    9.1892458    62.175744 
   10200     298.3419   -10510.832            0   -9622.4207    19363.415    775.90835      9.18904      9.18904      9.18904    49.224053 
   10300    298.53693   -10506.939            0    -9617.947    10222.886    776.73465    9.1923008    9.1923008    9.1923008    47.033904 
   10400      317.591   -10559.097            0   -9613.3654    8897.9178     778.3139    9.1985265    9.1985265    9.1985265    55.208594 
   10500    293.68184   -10480.341            0   -9605.8067    1922.1023    780.34146    9.2065071    9.2065071    9.2065071    59.047405 
   10600    298.32185   -10487.419            0   -9599.0672    12754.388    782.53697    9.2151333    9.2151333    9.2151333    53.478886 
   10700    293.13461   -10461.746            0   -9588.8409   -9162.5338    784.88337    9.2243345    9.2243345    9.2243345    57.084559 
   10800    304.44548   -10485.583            0   -9578.9961    469.73635    787.02372    9.2327117    9.2327117    9.2327117    59.840691 
   10900    309.37399   -10488.803            0   -9567.5405   -4535.8227    789.01461    9.2404903    9.2404903    9.2404903    51.589586 
   11000    313.44533    -10487.44            0   -9554.0538   -23417.291     790.5445    9.2464588    9.2464588    9.2464588    60.888553 
Loop time of 18.1444 on 16 procs for 1000 steps with 1000 atoms

Performance: 4.762 ns/day, 5.040 hours/ns, 55.113 timesteps/s
94.9% CPU use with 16 MPI tasks x no OpenMP threads

MPI task timing breakdown:
Section |  min time  |  avg time  |  max time  |%varavg| %total
---------------------------------------------------------------
Pair    | 2.2408     | 2.4356     | 2.6941     |   7.0 | 13.42
Neigh   | 0.75253    | 0.80496    | 0.87284    |   3.5 |  4.44
Comm    | 0.68524    | 1.0207     | 1.2642     |  14.0 |  5.63
Output  | 9.3084     | 9.5943     | 13.83      |  35.3 | 52.88
Modify  | 0.05425    | 4.2807     | 4.566      |  52.7 | 23.59
Other   |            | 0.008198   |            |       |  0.05

Nlocal:    62.5 ave 68 max 59 min
Histogram: 1 1 5 4 0 2 1 0 1 1
Nghost:    1824.25 ave 1844 max 1794 min
Histogram: 1 0 1 1 3 2 1 3 1 3
Neighs:    0 ave 0 max 0 min
Histogram: 16 0 0 0 0 0 0 0 0 0
FullNghs:  18663.8 ave 20665 max 17518 min
Histogram: 1 4 4 2 1 1 1 0 1 1

Total # of neighbors = 298620
Ave neighs/atom = 298.62
Neighbor list builds = 1000
Dangerous builds not checked
Setting up Verlet run ...
  Unit style    : real
  Current step  : 11000
  Time step     : 1
Per MPI rank memory allocation (min/avg/max) = 4.576 | 4.578 | 4.58 Mbytes
Step Temp E_pair E_mol TotEng Press Volume Lx Ly Lz S/CPU 
   11000    313.44533    -10487.44            0   -9554.0538   -23417.291     790.5445    9.2464588    9.2464588    9.2464588            0 
   11100    296.18434   -10423.551            0   -9541.5644   -14086.681    791.13483    9.2487598    9.2487598    9.2487598    54.538875 
   11200    309.92055   -10454.551            0   -9531.6603   -8090.7268    791.01885    9.2483078    9.2483078    9.2483078    70.247987 
   11300    306.32184   -10435.592            0   -9523.4183    2576.7494    790.74533    9.2472418    9.2472418    9.2472418    47.056382 
   11400    298.06813   -10406.795            0   -9519.1988   -4648.7993    790.53162    9.2464086    9.2464086    9.2464086    65.509867 
   11500    306.83748   -10431.087            0   -9517.3777    5892.7516     790.2894    9.2454642    9.2454642    9.2454642    51.050733 
   11600    315.38137   -10458.941            0   -9519.7895    485.23117    790.20845    9.2451485    9.2451485    9.2451485    52.739435 
   11700    309.28294   -10444.506            0   -9523.5147   -2227.6028    789.96136    9.2441847    9.2441847    9.2441847    62.358741 
   11800    311.10872   -10455.402            0   -9528.9731    5765.8239    789.64021    9.2429319    9.2429319    9.2429319    48.599613 
   11900    308.01284   -10451.992            0   -9534.7827    1794.3162     789.7125    9.2432139    9.2432139    9.2432139    48.456353 
   12000    310.69177   -10467.056            0   -9541.8694    1683.1302    789.75434    9.2433771    9.2433771    9.2433771    52.918999 
Loop time of 18.3783 on 16 procs for 1000 steps with 1000 atoms

Performance: 4.701 ns/day, 5.105 hours/ns, 54.412 timesteps/s
94.8% CPU use with 16 MPI tasks x no OpenMP threads

MPI task timing breakdown:
Section |  min time  |  avg time  |  max time  |%varavg| %total
---------------------------------------------------------------
Pair    | 2.2069     | 2.3539     | 2.6271     |   6.0 | 12.81
Neigh   | 0.74448    | 0.79635    | 0.87593    |   3.1 |  4.33
Comm    | 0.68138    | 1.0339     | 1.2337     |  11.7 |  5.63
Output  | 9.7207     | 9.9999     | 14.136     |  33.8 | 54.41
Modify  | 0.04913    | 4.1862     | 4.4655     |  52.2 | 22.78
Other   |            | 0.008109   |            |       |  0.04

Nlocal:    62.5 ave 67 max 57 min
Histogram: 1 1 1 0 3 0 4 2 2 2
Nghost:    1843.31 ave 1856 max 1834 min
Histogram: 2 1 3 1 2 4 2 0 0 1
Neighs:    0 ave 0 max 0 min
Histogram: 16 0 0 0 0 0 0 0 0 0
FullNghs:  18696.6 ave 20185 max 17012 min
Histogram: 2 1 0 1 2 3 2 3 1 1

Total # of neighbors = 299146
Ave neighs/atom = 299.146
Neighbor list builds = 1000
Dangerous builds not checked
Setting up Verlet run ...
  Unit style    : real
  Current step  : 12000
  Time step     : 1
Per MPI rank memory allocation (min/avg/max) = 4.576 | 4.578 | 4.58 Mbytes
Step Temp E_pair E_mol TotEng Press Volume Lx Ly Lz S/CPU 
   12000    310.69177   -10467.056            0   -9541.8694    1683.1302    789.75434    9.2433771    9.2433771    9.2433771            0 
   12100     305.3098   -10456.145            0   -9546.9849    9738.2841     790.0088    9.2443698    9.2443698    9.2443698    57.633924 
   12200    305.07875   -10462.056            0   -9553.5834    4200.5137    790.67834    9.2469806    9.2469806    9.2469806    65.827758 
   12300     311.4728   -10487.431            0   -9559.9182    2054.7181    791.83514     9.251488     9.251488     9.251488    61.794315 
   12400    302.84435   -10465.792            0   -9563.9732    2090.5399    793.35133    9.2573891    9.2573891    9.2573891    51.474884 
   12500    295.61285   -10447.623            0   -9567.3381   -6387.7134    794.69654    9.2626184    9.2626184    9.2626184     47.73184 
   12600     303.4612   -10475.124            0   -9571.4687   -14307.491    795.74183    9.2666778    9.2666778    9.2666778    49.344977 
   12700     306.4497   -10486.967            0   -9574.4119   -16432.098    796.21631    9.2685193    9.2685193    9.2685193    51.037197 
   12800    301.97975   -10475.864            0   -9576.6194    6871.4183    795.64298    9.2662941    9.2662941    9.2662941    55.623959 
   12900    293.39444    -10451.54            0   -9577.8611   -5808.1777    794.56604    9.2621114    9.2621114    9.2621114    47.889938 
   13000     300.6938    -10476.85            0   -9581.4352   -19529.934    792.74984     9.255049     9.255049     9.255049    60.536946 
Loop time of 18.4339 on 16 procs for 1000 steps with 1000 atoms

Performance: 4.687 ns/day, 5.121 hours/ns, 54.248 timesteps/s
94.9% CPU use with 16 MPI tasks x no OpenMP threads

MPI task timing breakdown:
Section |  min time  |  avg time  |  max time  |%varavg| %total
---------------------------------------------------------------
Pair    | 2.1836     | 2.3706     | 2.6184     |   6.5 | 12.86
Neigh   | 0.75994    | 0.80379    | 0.88337    |   3.0 |  4.36
Comm    | 0.68033    | 1.0066     | 1.2382     |  12.6 |  5.46
Output  | 9.9652     | 10.241     | 14.198     |  31.9 | 55.55
Modify  | 0.045164   | 4.0042     | 4.2793     |  51.1 | 21.72
Other   |            | 0.008136   |            |       |  0.04

Nlocal:    62.5 ave 66 max 57 min
Histogram: 1 1 0 1 1 2 4 3 2 1
Nghost:    1839.94 ave 1859 max 1828 min
Histogram: 2 4 2 0 1 3 3 0 0 1
Neighs:    0 ave 0 max 0 min
Histogram: 16 0 0 0 0 0 0 0 0 0
FullNghs:  18604.8 ave 19608 max 16891 min
Histogram: 1 1 0 1 1 1 4 1 4 2

Total # of neighbors = 297676
Ave neighs/atom = 297.676
Neighbor list builds = 1000
Dangerous builds not checked
Setting up Verlet run ...
  Unit style    : real
  Current step  : 13000
  Time step     : 1
Per MPI rank memory allocation (min/avg/max) = 4.576 | 4.578 | 4.58 Mbytes
Step Temp E_pair E_mol TotEng Press Volume Lx Ly Lz S/CPU 
   13000     300.6938    -10476.85            0   -9581.4352   -19529.934    792.74984     9.255049     9.255049     9.255049            0 
   13100    300.67812   -10479.318            0   -9583.9498    6542.8462    790.11448     9.244782     9.244782     9.244782    51.662264 
   13200    299.88361   -10479.124            0   -9586.1215   -3551.1162    787.25519    9.2336167    9.2336167    9.2336167    55.354417 
   13300    310.68665   -10514.704            0   -9589.5319    15660.499    784.44671    9.2226236    9.2226236    9.2226236    60.725656 
   13400    315.57433   -10533.995            0   -9594.2687   -3247.5716    782.05148    9.2132272    9.2132272    9.2132272     48.31671 
   13500     305.4222   -10510.718            0   -9601.2231    10374.529    779.72993    9.2041016    9.2041016    9.2041016    65.128682 
   13600    295.68915   -10490.062            0   -9609.5503    3186.7789    777.73916    9.1962617    9.1962617    9.1962617    56.175039 
   13700    296.27522    -10501.57            0   -9619.3125    6804.9505    776.36129    9.1908277    9.1908277    9.1908277    64.734803 
   13800    295.95063   -10512.651            0   -9631.3607    1507.1271    775.64881    9.1880153    9.1880153    9.1880153    42.178545 
   13900     299.5692   -10534.129            0   -9642.0635    8036.8469    775.50047    9.1874295    9.1874295    9.1874295    61.471088 
   14000    290.19275   -10514.514            0   -9650.3693    2895.4735    775.75867    9.1884491    9.1884491    9.1884491    48.925882 
Loop time of 18.3605 on 16 procs for 1000 steps with 1000 atoms

Performance: 4.706 ns/day, 5.100 hours/ns, 54.465 timesteps/s
94.9% CPU use with 16 MPI tasks x no OpenMP threads

MPI task timing breakdown:
Section |  min time  |  avg time  |  max time  |%varavg| %total
---------------------------------------------------------------
Pair    | 2.2571     | 2.4215     | 2.5592     |   4.7 | 13.19
Neigh   | 0.76986    | 0.80229    | 0.84126    |   2.0 |  4.37
Comm    | 0.87683    | 1.0416     | 1.2388     |   8.7 |  5.67
Output  | 9.2964     | 9.5955     | 14.026     |  36.9 | 52.26
Modify  | 0.060526   | 4.4915     | 4.791      |  54.0 | 24.46
Other   |            | 0.008174   |            |       |  0.04

Nlocal:    62.5 ave 69 max 57 min
Histogram: 2 2 1 1 0 5 3 0 1 1
Nghost:    1867.56 ave 1893 max 1843 min
Histogram: 1 0 2 3 3 0 5 1 0 1
Neighs:    0 ave 0 max 0 min
Histogram: 16 0 0 0 0 0 0 0 0 0
FullNghs:  19034 ave 20750 max 17238 min
Histogram: 1 2 2 1 0 3 2 3 0 2

Total # of neighbors = 304544
Ave neighs/atom = 304.544
Neighbor list builds = 1000
Dangerous builds not checked
Setting up Verlet run ...
  Unit style    : real
  Current step  : 14000
  Time step     : 1
Per MPI rank memory allocation (min/avg/max) = 4.576 | 4.578 | 4.58 Mbytes
Step Temp E_pair E_mol TotEng Press Volume Lx Ly Lz S/CPU 
   14000    290.19275   -10514.514            0   -9650.3693    2895.4735    775.75867    9.1884491    9.1884491    9.1884491            0 
   14100    293.73751   -10532.629            0   -9657.9289    11142.263    776.68518    9.1921056    9.1921056    9.1921056    60.297402 
   14200    299.68846   -10554.331            0   -9661.9095    6489.0229    778.48004    9.1991809    9.1991809    9.1991809      62.1111 
   14300    288.47205   -10522.474            0    -9663.454    -2991.149    780.83714    9.2084561    9.2084561    9.2084561    60.409289 
   14400    290.15331   -10527.439            0    -9663.412   -4858.3309    783.22634    9.2178385    9.2178385    9.2178385    51.108857 
   14500    292.80559   -10533.438            0   -9661.5133   -14443.038    785.26591    9.2258329    9.2258329    9.2258329    66.916865 
   14600    283.39617   -10501.231            0    -9657.326     4495.519    786.55832    9.2308915    9.2308915    9.2308915    56.655397 
   14700    285.07085   -10502.281            0   -9653.3886    -113.8255    787.84808    9.2359341    9.2359341    9.2359341    68.380196 
   14800    297.43344   -10535.316            0   -9649.6103   -13541.601    788.82523    9.2397509    9.2397509    9.2397509    49.149935 
   14900    296.27796   -10527.566            0   -9645.3013   -3551.2186    789.22599    9.2413154    9.2413154    9.2413154    65.208074 
   15000    297.88416   -10527.734            0   -9640.6857   -1178.3197    789.61274    9.2428247    9.2428247    9.2428247    50.229926 
Loop time of 17.1613 on 16 procs for 1000 steps with 1000 atoms

Performance: 5.035 ns/day, 4.767 hours/ns, 58.271 timesteps/s
95.0% CPU use with 16 MPI tasks x no OpenMP threads

MPI task timing breakdown:
Section |  min time  |  avg time  |  max time  |%varavg| %total
---------------------------------------------------------------
Pair    | 2.3076     | 2.4698     | 2.6528     |   5.8 | 14.39
Neigh   | 0.78853    | 0.81732    | 0.86688    |   2.5 |  4.76
Comm    | 0.7876     | 0.99818    | 1.182      |  10.8 |  5.82
Output  | 8.7785     | 9.0335     | 12.808     |  32.4 | 52.64
Modify  | 0.060194   | 3.8343     | 4.0899     |  49.8 | 22.34
Other   |            | 0.008272   |            |       |  0.05

Nlocal:    62.5 ave 70 max 56 min
Histogram: 1 1 5 0 0 5 1 2 0 1
Nghost:    1844.94 ave 1875 max 1826 min
Histogram: 2 3 2 1 4 1 1 1 0 1
Neighs:    0 ave 0 max 0 min
Histogram: 16 0 0 0 0 0 0 0 0 0
FullNghs:  18705 ave 21126 max 16753 min
Histogram: 2 0 4 1 3 1 3 1 0 1

Total # of neighbors = 299280
Ave neighs/atom = 299.28
Neighbor list builds = 1000
Dangerous builds not checked
Setting up Verlet run ...
  Unit style    : real
  Current step  : 15000
  Time step     : 1
Per MPI rank memory allocation (min/avg/max) = 4.576 | 4.578 | 4.58 Mbytes
Step Temp E_pair E_mol TotEng Press Volume Lx Ly Lz S/CPU 
   15000    297.88416   -10527.734            0   -9640.6857   -1178.3197    789.61274    9.2428247    9.2428247    9.2428247            0 
   15100    286.69012   -10489.816            0   -9636.1016   -22575.289    789.83605    9.2436959    9.2436959    9.2436959    52.175123 
   15200     288.5154     -10490.8            0   -9631.6508   -5315.8196    789.27089    9.2414907    9.2414907    9.2414907    55.230776 
   15300    279.56476   -10457.828            0    -9625.332    -10968.63    788.46214    9.2383331    9.2383331    9.2383331    52.891801 
   15400    295.45915   -10499.728            0   -9619.9008    79.917954    787.10283     9.233021     9.233021     9.233021    64.031311 
   15500     299.8178   -10504.797            0   -9611.9912    -8027.967    785.23283    9.2257033    9.2257033    9.2257033     54.31768 
   15600    291.36375   -10472.097            0   -9604.4652    8580.6362    782.95675    9.2167808    9.2167808    9.2167808    63.558389 
   15700    297.55795    -10482.73            0    -9596.653    14021.799    780.98593    9.2090409    9.2090409    9.2090409    42.577645 
   15800    305.95784   -10501.235            0   -9590.1449   -14168.904    779.29908     9.202406     9.202406     9.202406     61.64138 
   15900    305.76872   -10495.238            0   -9584.7114    19142.629    777.30824     9.194563     9.194563     9.194563    44.277312 
   16000    300.12336    -10474.31            0   -9580.5938    5202.0739    775.69718    9.1882063    9.1882063    9.1882063    48.285158 
Loop time of 18.8945 on 16 procs for 1000 steps with 1000 atoms

Performance: 4.573 ns/day, 5.248 hours/ns, 52.926 timesteps/s
94.9% CPU use with 16 MPI tasks x no OpenMP threads

MPI task timing breakdown:
Section |  min time  |  avg time  |  max time  |%varavg| %total
---------------------------------------------------------------
Pair    | 2.1767     | 2.4114     | 2.6093     |   7.2 | 12.76
Neigh   | 0.73785    | 0.80315    | 0.871      |   3.4 |  4.25
Comm    | 0.81151    | 1.0517     | 1.3546     |  13.7 |  5.57
Output  | 9.4247     | 9.7468     | 14.528     |  39.5 | 51.59
Modify  | 0.089739   | 4.8732     | 5.196      |  55.9 | 25.79
Other   |            | 0.008156   |            |       |  0.04

Nlocal:    62.5 ave 71 max 55 min
Histogram: 1 1 1 4 1 3 3 1 0 1
Nghost:    1871.12 ave 1885 max 1856 min
Histogram: 1 2 1 1 4 1 1 1 2 2
Neighs:    0 ave 0 max 0 min
Histogram: 16 0 0 0 0 0 0 0 0 0
FullNghs:  19036.1 ave 21642 max 16767 min
Histogram: 1 1 2 3 2 2 3 1 0 1

Total # of neighbors = 304578
Ave neighs/atom = 304.578
Neighbor list builds = 1000
Dangerous builds not checked
Setting up Verlet run ...
  Unit style    : real
  Current step  : 16000
  Time step     : 1
Per MPI rank memory allocation (min/avg/max) = 4.576 | 4.578 | 4.58 Mbytes
Step Temp E_pair E_mol TotEng Press Volume Lx Ly Lz S/CPU 
   16000    300.12336    -10474.31            0   -9580.5938    5202.0739    775.69718    9.1882063    9.1882063    9.1882063            0 
   16100    302.38053   -10479.244            0   -9578.8065    18905.807    774.85877    9.1848948    9.1848948    9.1848948    55.923901 
   16200    305.33457   -10486.331            0   -9577.0963    100.79282    774.89634    9.1850432    9.1850432    9.1850432    51.528703 
   16300    305.52846   -10487.632            0   -9577.8202    15431.482    775.34842    9.1868291    9.1868291    9.1868291    62.241354 
   16400    300.90662   -10474.525            0    -9578.476    6547.0143    776.23953    9.1903472    9.1903472    9.1903472    54.304887 
   16500    301.72506   -10478.362            0   -9579.8764   -513.83313    777.65381    9.1959253    9.1959253    9.1959253     62.43001 
   16600    291.15414   -10446.711            0   -9579.7034    9289.4622     779.4755    9.2031003    9.2031003    9.2031003    50.926718 
   16700    304.14216   -10486.702            0   -9581.0183    11312.162    781.91748     9.212701     9.212701     9.212701    65.875627 
   16800    308.39747   -10500.924            0   -9582.5685    2323.7101      784.762     9.223859     9.223859     9.223859    51.853734 
   16900    301.59516   -10482.785            0   -9584.6863   -1184.1973    787.27115    9.2336791    9.2336791    9.2336791    61.459233 
   17000    292.63561   -10459.955            0   -9588.5363   -14953.763    789.10077    9.2408266    9.2408266    9.2408266    62.157889 
Loop time of 17.4249 on 16 procs for 1000 steps with 1000 atoms

Performance: 4.958 ns/day, 4.840 hours/ns, 57.389 timesteps/s
95.0% CPU use with 16 MPI tasks x no OpenMP threads

MPI task timing breakdown:
Section |  min time  |  avg time  |  max time  |%varavg| %total
---------------------------------------------------------------
Pair    | 2.2105     | 2.3847     | 2.5708     |   6.0 | 13.69
Neigh   | 0.73746    | 0.7891     | 0.84874    |   3.4 |  4.53
Comm    | 0.82388    | 1.0694     | 1.296      |  11.8 |  6.14
Output  | 8.9688     | 9.2331     | 13.135     |  33.2 | 52.99
Modify  | 0.037759   | 3.9403     | 4.2052     |  50.8 | 22.61
Other   |            | 0.008211   |            |       |  0.05

Nlocal:    62.5 ave 67 max 56 min
Histogram: 3 0 0 1 1 1 2 3 1 4
Nghost:    1847.56 ave 1869 max 1831 min
Histogram: 4 0 1 4 0 2 2 1 1 1
Neighs:    0 ave 0 max 0 min
Histogram: 16 0 0 0 0 0 0 0 0 0
FullNghs:  18682.9 ave 20158 max 16745 min
Histogram: 3 0 0 1 2 0 3 3 2 2

Total # of neighbors = 298926
Ave neighs/atom = 298.926
Neighbor list builds = 1000
Dangerous builds not checked
Setting up Verlet run ...
  Unit style    : real
  Current step  : 17000
  Time step     : 1
Per MPI rank memory allocation (min/avg/max) = 4.576 | 4.578 | 4.58 Mbytes
Step Temp E_pair E_mol TotEng Press Volume Lx Ly Lz S/CPU 
   17000    292.63561   -10459.955            0   -9588.5363   -14953.763    789.10077    9.2408266    9.2408266    9.2408266            0 
   17100     291.1662   -10462.076            0   -9595.0325   -16496.434    789.83996    9.2437112    9.2437112    9.2437112    48.598672 
   17200    301.09409   -10501.018            0   -9604.4112   -14750.018    789.47546     9.242289     9.242289     9.242289    64.735779 
   17300    290.31192   -10478.046            0   -9613.5471   -15132.168    788.38876    9.2380464    9.2380464    9.2380464    73.244235 
   17400      297.603   -10511.895            0    -9625.684   -13460.453    786.57734    9.2309658    9.2309658    9.2309658    52.576398 
   17500    295.35887   -10515.983            0   -9636.4546   -4743.9406    783.80109    9.2200927    9.2200927    9.2200927    58.223751 
   17600    297.34869   -10529.753            0   -9644.2996    14032.752    780.67602    9.2078227    9.2078227    9.2078227    51.914296 
   17700    295.60197   -10530.393            0   -9650.1408   -1598.3501     778.2143    9.1981341    9.1981341    9.1981341    48.062305 
   17800    294.80239   -10533.156            0   -9655.2845    9991.2029    776.21736    9.1902597    9.1902597    9.1902597    59.417869 
   17900    285.34161    -10508.89            0   -9659.1917     21269.57    774.99339    9.1854266    9.1854266    9.1854266    42.899893 
   18000    296.57579   -10544.194            0   -9661.0415    2136.1158    774.61893     9.183947     9.183947     9.183947    59.555758 
Loop time of 18.2872 on 16 procs for 1000 steps with 1000 atoms

Performance: 4.725 ns/day, 5.080 hours/ns, 54.683 timesteps/s
94.9% CPU use with 16 MPI tasks x no OpenMP threads

MPI task timing breakdown:
Section |  min time  |  avg time  |  max time  |%varavg| %total
---------------------------------------------------------------
Pair    | 2.357      | 2.4549     | 2.7067     |   5.7 | 13.42
Neigh   | 0.78703    | 0.81399    | 0.86936    |   2.2 |  4.45
Comm    | 0.70175    | 1.0081     | 1.1324     |  10.6 |  5.51
Output  | 9.3198     | 9.6124     | 13.95      |  36.1 | 52.56
Modify  | 0.051478   | 4.3897     | 4.6825     |  53.5 | 24.00
Other   |            | 0.008206   |            |       |  0.04

Nlocal:    62.5 ave 65 max 58 min
Histogram: 1 1 1 0 2 1 0 4 3 3
Nghost:    1874.94 ave 1887 max 1861 min
Histogram: 1 1 0 1 3 3 4 0 2 1
Neighs:    0 ave 0 max 0 min
Histogram: 16 0 0 0 0 0 0 0 0 0
FullNghs:  19047.9 ave 20051 max 17424 min
Histogram: 1 0 2 1 0 2 3 2 2 3

Total # of neighbors = 304766
Ave neighs/atom = 304.766
Neighbor list builds = 1000
Dangerous builds not checked
Setting up Verlet run ...
  Unit style    : real
  Current step  : 18000
  Time step     : 1
Per MPI rank memory allocation (min/avg/max) = 4.576 | 4.578 | 4.58 Mbytes
Step Temp E_pair E_mol TotEng Press Volume Lx Ly Lz S/CPU 
   18000    296.57579   -10544.194            0   -9661.0415    2136.1158    774.61893     9.183947     9.183947     9.183947            0 
   18100    291.43057   -10528.146            0   -9660.3155    4064.2506    774.96589     9.185318     9.185318     9.185318    49.838173 
   18200    285.02153   -10507.324            0    -9658.579    9133.2988    776.05573    9.1896218    9.1896218    9.1896218    55.563522 
   18300     294.1068   -10532.321            0   -9656.5212    3138.0915    777.95541     9.197114     9.197114     9.197114    40.283493 
   18400    297.82577   -10539.081            0   -9652.2069   -414.66741    780.31447     9.206401     9.206401     9.206401    46.709936 
   18500    298.45867   -10535.251            0    -9646.492   -788.86725    783.06631    9.2172107    9.2172107    9.2172107    63.842089 
   18600    290.26397   -10499.169            0   -9634.8124    3463.5811    785.64483    9.2273165    9.2273165    9.2273165    48.627567 
   18700    291.19448   -10489.455            0   -9622.3271   -13379.068    788.05627    9.2367476    9.2367476    9.2367476    65.091904 
   18800    298.27524   -10497.937            0    -9609.724    319.79468    790.17977    9.2450366    9.2450366    9.2450366    47.592656 
   18900    301.02349   -10491.488            0   -9595.0911    10977.324    792.31615    9.2533609    9.2533609    9.2533609    57.989629 
   19000    299.23752   -10475.153            0    -9584.075     -14484.6    794.37367    9.2613638    9.2613638    9.2613638    55.550197 
Loop time of 19.2144 on 16 procs for 1000 steps with 1000 atoms

Performance: 4.497 ns/day, 5.337 hours/ns, 52.044 timesteps/s
94.8% CPU use with 16 MPI tasks x no OpenMP threads

MPI task timing breakdown:
Section |  min time  |  avg time  |  max time  |%varavg| %total
---------------------------------------------------------------
Pair    | 2.1697     | 2.4392     | 2.6093     |   7.0 | 12.69
Neigh   | 0.74745    | 0.80873    | 0.87405    |   3.3 |  4.21
Comm    | 0.80312    | 1.0382     | 1.3692     |  13.5 |  5.40
Output  | 9.7619     | 10.085     | 14.874     |  38.9 | 52.48
Modify  | 0.045626   | 4.8355     | 5.158      |  56.2 | 25.17
Other   |            | 0.008143   |            |       |  0.04

Nlocal:    62.5 ave 66 max 57 min
Histogram: 1 0 1 2 2 0 4 2 2 2
Nghost:    1832.81 ave 1848 max 1818 min
Histogram: 2 0 2 2 3 0 2 2 2 1
Neighs:    0 ave 0 max 0 min
Histogram: 16 0 0 0 0 0 0 0 0 0
FullNghs:  18584.8 ave 19739 max 16973 min
Histogram: 1 0 2 1 2 1 3 2 3 1

Total # of neighbors = 297356
Ave neighs/atom = 297.356
Neighbor list builds = 1000
Dangerous builds not checked
Setting up Verlet run ...
  Unit style    : real
  Current step  : 19000
  Time step     : 1
Per MPI rank memory allocation (min/avg/max) = 4.576 | 4.578 | 4.58 Mbytes
Step Temp E_pair E_mol TotEng Press Volume Lx Ly Lz S/CPU 
   19000    299.23752   -10475.153            0    -9584.075     -14484.6    794.37367    9.2613638    9.2613638    9.2613638            0 
   19100    297.69303   -10463.392            0   -9576.9133   -15042.155    795.29352    9.2649372    9.2649372    9.2649372     41.74673 
   19200    294.32115   -10449.494            0   -9573.0562   -19234.959    795.00338    9.2638104    9.2638104    9.2638104    48.601926 
   19300    298.46847   -10458.775            0   -9569.9865   -16857.904    793.50253    9.2579772    9.2579772    9.2579772    50.074252 
   19400    296.64264   -10451.838            0   -9568.4873   -370.46304    791.05004    9.2484294    9.2484294    9.2484294    57.174963 
   19500    312.27126   -10498.565            0    -9568.675   -4616.6918    788.27368    9.2375969    9.2375969    9.2375969    62.956576 
   19600    315.54572    -10507.87            0   -9568.2284   -7231.6871    785.50022    9.2267503    9.2267503    9.2267503    56.250083 
   19700    305.84072   -10480.397            0   -9569.6554    8807.9338    783.07161    9.2172315    9.2172315    9.2172315    68.840507 
   19800    302.58411   -10471.528            0   -9570.4842    10929.597    781.35725    9.2105002    9.2105002    9.2105002    53.210729 
   19900    294.96511   -10451.823            0   -9573.4671      12637.8    780.48468    9.2070703    9.2070703    9.2070703    63.310678 
   20000    294.91493   -10454.231            0   -9576.0243    18174.204    780.83848    9.2084613    9.2084613    9.2084613    51.468467 
Loop time of 18.4196 on 16 procs for 1000 steps with 1000 atoms

Performance: 4.691 ns/day, 5.117 hours/ns, 54.290 timesteps/s
94.9% CPU use with 16 MPI tasks x no OpenMP threads

MPI task timing breakdown:
Section |  min time  |  avg time  |  max time  |%varavg| %total
---------------------------------------------------------------
Pair    | 2.2341     | 2.3882     | 2.6382     |   6.4 | 12.97
Neigh   | 0.75899    | 0.80123    | 0.87704    |   3.0 |  4.35
Comm    | 0.67084    | 0.99623    | 1.1925     |  12.4 |  5.41
Output  | 9.1538     | 9.4702     | 14.166     |  39.4 | 51.41
Modify  | 0.058871   | 4.7555     | 5.0719     |  55.6 | 25.82
Other   |            | 0.008137   |            |       |  0.04

Nlocal:    62.5 ave 68 max 58 min
Histogram: 2 3 1 1 2 1 1 1 1 3
Nghost:    1863.06 ave 1889 max 1834 min
Histogram: 1 2 2 2 1 1 0 3 2 2
Neighs:    0 ave 0 max 0 min
Histogram: 16 0 0 0 0 0 0 0 0 0
FullNghs:  18900.9 ave 20742 max 17467 min
Histogram: 4 2 0 2 2 0 2 0 1 3

Total # of neighbors = 302414
Ave neighs/atom = 302.414
Neighbor list builds = 1000
Dangerous builds not checked
Setting up Verlet run ...
  Unit style    : real
  Current step  : 20000
  Time step     : 1
Per MPI rank memory allocation (min/avg/max) = 4.576 | 4.578 | 4.58 Mbytes
Step Temp E_pair E_mol TotEng Press Volume Lx Ly Lz S/CPU 
   20000    294.91493   -10454.231            0   -9576.0243    18174.204    780.83848    9.2084613    9.2084613    9.2084613            0 
   20100    300.39311   -10475.707            0   -9581.1876    2138.2214    781.90836    9.2126652    9.2126652    9.2126652    68.544528 
   20200    307.34386   -10501.244            0   -9586.0268    13805.748    783.61215    9.2193518    9.2193518    9.2193518    50.786706 
   20300    298.18309    -10480.01            0   -9592.0713   -317.75058    785.47606    9.2266558    9.2266558    9.2266558    74.675003 
   20400    303.13094   -10503.173            0   -9600.5013    518.08197    787.12632    9.2331129    9.2331129    9.2331129    50.830886 
   20500    295.41115   -10487.834            0   -9608.1503    607.89798    788.50034    9.2384822    9.2384822    9.2384822    63.189794 
   20600    295.43007   -10497.226            0   -9617.4856   -2507.9782    789.69092    9.2431297    9.2431297    9.2431297    49.280003 
   20700    305.25909   -10535.053            0   -9626.0432    6331.4149    790.88912    9.2478022    9.2478022    9.2478022    60.079479 
   20800    301.26143   -10531.327            0   -9634.2221   -1864.1402    792.32974    9.2534138    9.2534138    9.2534138    56.321856 
   20900    289.15376   -10503.502            0   -9642.4516   -17765.052    793.57134    9.2582448    9.2582448    9.2582448    58.418035 
   21000    289.43661   -10512.217            0   -9650.3238   -25784.737    793.73325    9.2588744    9.2588744    9.2588744    53.915008 
Loop time of 17.3527 on 16 procs for 1000 steps with 1000 atoms

Performance: 4.979 ns/day, 4.820 hours/ns, 57.628 timesteps/s
95.0% CPU use with 16 MPI tasks x no OpenMP threads

MPI task timing breakdown:
Section |  min time  |  avg time  |  max time  |%varavg| %total
---------------------------------------------------------------
Pair    | 2.313      | 2.4278     | 2.6068     |   5.3 | 13.99
Neigh   | 0.7811     | 0.81581    | 0.87684    |   2.7 |  4.70
Comm    | 0.7499     | 0.9895     | 1.138      |  10.6 |  5.70
Output  | 8.489      | 8.7778     | 13.06      |  37.3 | 50.58
Modify  | 0.050779   | 4.3336     | 4.6224     |  53.1 | 24.97
Other   |            | 0.008233   |            |       |  0.05

Nlocal:    62.5 ave 67 max 57 min
Histogram: 1 0 2 0 1 4 3 1 2 2
Nghost:    1850.12 ave 1860 max 1841 min
Histogram: 2 1 2 1 3 1 2 1 1 2
Neighs:    0 ave 0 max 0 min
Histogram: 16 0 0 0 0 0 0 0 0 0
FullNghs:  18576.6 ave 20009 max 16794 min
Histogram: 1 1 1 0 4 3 1 2 1 2

Total # of neighbors = 297226
Ave neighs/atom = 297.226
Neighbor list builds = 1000
Dangerous builds not checked
Setting up Verlet run ...
  Unit style    : real
  Current step  : 21000
  Time step     : 1
Per MPI rank memory allocation (min/avg/max) = 4.576 | 4.578 | 4.58 Mbytes
Step Temp E_pair E_mol TotEng Press Volume Lx Ly Lz S/CPU 
   21000    289.43661   -10512.217            0   -9650.3238   -25784.737    793.73325    9.2588744    9.2588744    9.2588744            0 
   21100    291.42809   -10526.199            0   -9658.3759   -3980.9749    792.47686    9.2539865    9.2539865    9.2539865    57.375325 
   21200     291.2351   -10533.512            0    -9666.264   -10114.165    790.45462    9.2461084    9.2461084    9.2461084    72.392452 
   21300    286.63731   -10526.447            0   -9672.8897    -6535.751    787.67312    9.2352504    9.2352504    9.2352504    52.179798 
   21400    295.17763   -10558.901            0   -9679.9125    8401.7567    784.59679    9.2232117    9.2232117    9.2232117    57.988435 
   21500    295.84971     -10568.9            0   -9687.9103    -1852.025      781.968    9.2128994    9.2128994    9.2128994    56.374132 
   21600    288.11589   -10554.519            0   -9696.5591    3744.1166    779.94123    9.2049329    9.2049329    9.2049329     50.25084 
   21700    297.80422   -10597.364            0   -9710.5539    7245.6438    778.43174    9.1989907    9.1989907    9.1989907    63.366657 
   21800    289.22516   -10584.487            0   -9723.2243    691.00383    777.31993    9.1946091    9.1946091    9.1946091    46.292911 
   21900    282.00409   -10574.073            0   -9734.3133    10446.261    776.65175    9.1919737    9.1919737    9.1919737    58.794508 
   22000    296.37677   -10626.528            0   -9743.9682    5272.8476    776.48649    9.1913217    9.1913217    9.1913217    53.124853 
Loop time of 17.8506 on 16 procs for 1000 steps with 1000 atoms

Performance: 4.840 ns/day, 4.958 hours/ns, 56.021 timesteps/s
94.9% CPU use with 16 MPI tasks x no OpenMP threads

MPI task timing breakdown:
Section |  min time  |  avg time  |  max time  |%varavg| %total
---------------------------------------------------------------
Pair    | 2.2974     | 2.435      | 2.6131     |   5.0 | 13.64
Neigh   | 0.77479    | 0.81052    | 0.87991    |   2.7 |  4.54
Comm    | 0.75083    | 0.99801    | 1.1677     |  10.1 |  5.59
Output  | 9.233      | 9.5042     | 13.523     |  33.7 | 53.24
Modify  | 0.075332   | 4.0946     | 4.3661     |  51.3 | 22.94
Other   |            | 0.008195   |            |       |  0.05

Nlocal:    62.5 ave 68 max 54 min
Histogram: 1 0 1 1 1 4 1 4 1 2
Nghost:    1865.19 ave 1877 max 1851 min
Histogram: 2 0 0 4 1 2 1 3 1 2
Neighs:    0 ave 0 max 0 min
Histogram: 16 0 0 0 0 0 0 0 0 0
FullNghs:  19003.1 ave 20682 max 16419 min
Histogram: 1 0 0 2 1 4 1 4 1 2

Total # of neighbors = 304050
Ave neighs/atom = 304.05
Neighbor list builds = 1000
Dangerous builds not checked
Setting up Verlet run ...
  Unit style    : real
  Current step  : 22000
  Time step     : 1
Per MPI rank memory allocation (min/avg/max) = 4.576 | 4.578 | 4.58 Mbytes
Step Temp E_pair E_mol TotEng Press Volume Lx Ly Lz S/CPU 
   22000    296.37677   -10626.528            0   -9743.9682    5272.8476    776.48649    9.1913217    9.1913217    9.1913217            0 
   22100    291.20082   -10615.978            0   -9748.8312    14611.494    776.83755    9.1927067    9.1927067    9.1927067    70.273414 
   22200    279.49391   -10582.248            0   -9749.9631    2808.9464    778.08755    9.1976347    9.1976347    9.1976347    51.455043 
   22300    280.04389   -10581.568            0   -9747.6452    4585.5255    779.64233    9.2037568    9.2037568    9.2037568    64.767762 
   22400    300.96237   -10639.852            0   -9743.6373    -4645.505    781.20944    9.2099194    9.2099194    9.2099194    51.149773 
   22500    297.73897   -10621.205            0   -9734.5891    -10276.38    783.00598     9.216974     9.216974     9.216974    58.994471 
   22600    281.07078   -10559.082            0    -9722.101   -13226.861     784.3298    9.2221654    9.2221654    9.2221654    64.683762 
   22700    285.10542   -10558.081            0   -9709.0856   -1955.2691    785.04275    9.2249588    9.2249588    9.2249588    54.707835 
   22800    287.34659   -10552.773            0   -9697.1038     -5288.64    785.42478     9.226455     9.226455     9.226455    43.010371 
   22900    285.75965   -10538.481            0   -9687.5374   -11553.415    785.56046    9.2269862    9.2269862    9.2269862     58.37827 
   23000    288.26518   -10537.776            0   -9679.3711   -8256.8013    785.52565    9.2268499    9.2268499    9.2268499    56.261138 
Loop time of 17.7499 on 16 procs for 1000 steps with 1000 atoms

Performance: 4.868 ns/day, 4.931 hours/ns, 56.338 timesteps/s
94.9% CPU use with 16 MPI tasks x no OpenMP threads

MPI task timing breakdown:
Section |  min time  |  avg time  |  max time  |%varavg| %total
---------------------------------------------------------------
Pair    | 2.3425     | 2.4532     | 2.6387     |   4.8 | 13.82
Neigh   | 0.78743    | 0.81383    | 0.85818    |   2.2 |  4.58
Comm    | 0.75137    | 0.98124    | 1.1158     |   9.2 |  5.53
Output  | 9.0672     | 9.344      | 13.446     |  34.6 | 52.64
Modify  | 0.047718   | 4.1494     | 4.4267     |  52.0 | 23.38
Other   |            | 0.008232   |            |       |  0.05

Nlocal:    62.5 ave 66 max 60 min
Histogram: 4 2 0 3 0 1 3 0 1 2
Nghost:    1852.75 ave 1868 max 1839 min
Histogram: 1 1 1 3 2 6 0 0 1 1
Neighs:    0 ave 0 max 0 min
Histogram: 16 0 0 0 0 0 0 0 0 0
FullNghs:  18788.5 ave 19877 max 17982 min
Histogram: 4 2 1 1 1 1 3 0 1 2

Total # of neighbors = 300616
Ave neighs/atom = 300.616
Neighbor list builds = 1000
Dangerous builds not checked
Setting up Verlet run ...
  Unit style    : real
  Current step  : 23000
  Time step     : 1
Per MPI rank memory allocation (min/avg/max) = 4.576 | 4.578 | 4.58 Mbytes
Step Temp E_pair E_mol TotEng Press Volume Lx Ly Lz S/CPU 
   23000    288.26518   -10537.776            0   -9679.3711   -8256.8013    785.52565    9.2268499    9.2268499    9.2268499            0 
   23100    294.21109   -10548.636            0   -9672.5258   -9834.1191    785.16763     9.225448     9.225448     9.225448    53.138698 
   23200    283.56822    -10509.06            0   -9664.6418   -7905.9203    784.41103    9.2224837    9.2224837    9.2224837    68.045815 
   23300    296.85013   -10542.497            0   -9658.5279    6761.3189     783.1804    9.2176583    9.2176583    9.2176583     54.05615 
   23400    289.81964   -10513.194            0   -9650.1609    2100.1692    781.79733     9.212229     9.212229     9.212229    62.138433 
   23500    291.69434   -10511.093            0   -9642.4768    5539.2503    780.53119    9.2072532    9.2072532    9.2072532     63.38231 
   23600    300.13614   -10529.385            0   -9635.6306   -3545.5697    779.49371     9.203172     9.203172     9.203172    51.017201 
   23700    298.39611   -10516.798            0   -9628.2252   -2127.5906    778.62815    9.1997643    9.1997643    9.1997643     63.25154 
   23800     299.4755    -10513.66            0   -9621.8733    11280.006    778.06696    9.1975535    9.1975535    9.1975535    53.134278 
   23900    309.24043   -10534.898            0   -9614.0332    12121.077    778.08134    9.1976102    9.1976102    9.1976102    68.346839 
   24000    307.33195   -10521.169            0    -9605.987     8107.792    778.84235    9.2006078    9.2006078    9.2006078    52.642809 
Loop time of 17.1743 on 16 procs for 1000 steps with 1000 atoms

Performance: 5.031 ns/day, 4.771 hours/ns, 58.227 timesteps/s
95.0% CPU use with 16 MPI tasks x no OpenMP threads

MPI task timing breakdown:
Section |  min time  |  avg time  |  max time  |%varavg| %total
---------------------------------------------------------------
Pair    | 2.2944     | 2.447      | 2.5523     |   4.3 | 14.25
Neigh   | 0.76922    | 0.8076     | 0.84011    |   2.2 |  4.70
Comm    | 0.86096    | 0.9941     | 1.1853     |   8.5 |  5.79
Output  | 8.9806     | 9.2247     | 12.836     |  30.7 | 53.71
Modify  | 0.081189   | 3.6927     | 3.937      |  48.5 | 21.50
Other   |            | 0.008202   |            |       |  0.05

Nlocal:    62.5 ave 70 max 60 min
Histogram: 3 3 5 1 1 2 0 0 0 1
Nghost:    1871.38 ave 1889 max 1848 min
Histogram: 1 0 1 1 2 2 4 3 1 1
Neighs:    0 ave 0 max 0 min
Histogram: 16 0 0 0 0 0 0 0 0 0
FullNghs:  18944.6 ave 21450 max 18045 min
Histogram: 4 4 3 2 0 2 0 0 0 1

Total # of neighbors = 303114
Ave neighs/atom = 303.114
Neighbor list builds = 1000
Dangerous builds not checked
Setting up Verlet run ...
  Unit style    : real
  Current step  : 24000
  Time step     : 1
Per MPI rank memory allocation (min/avg/max) = 4.576 | 4.578 | 4.58 Mbytes
Step Temp E_pair E_mol TotEng Press Volume Lx Ly Lz S/CPU 
   24000    307.33195   -10521.169            0    -9605.987     8107.792    778.84235    9.2006078    9.2006078    9.2006078            0 
   24100    298.87644   -10488.635            0   -9598.6317   -2555.1568    779.83864    9.2045293    9.2045293    9.2045293    46.501014 
   24200    295.32209   -10472.077            0    -9592.658   -1788.2466    781.02523    9.2091954    9.2091954    9.2091954    63.838042 
   24300    304.96911   -10495.628            0   -9587.4824    1089.6963     782.2343    9.2139451    9.2139451    9.2139451    48.528259 
   24400    300.51852   -10474.435            0   -9579.5419    2951.2819    783.11466    9.2174003    9.2174003    9.2174003    52.873606 
   24500    305.66182   -10483.874            0   -9573.6657    3556.2216    783.93843    9.2206312    9.2206312    9.2206312    68.145665 
   24600    292.89124    -10441.03            0   -9568.8497     -2502.41    784.75671    9.2238383    9.2238383    9.2238383    48.355699 
   24700    306.09606   -10476.772            0   -9565.2698    3174.7803    785.90514    9.2283355    9.2283355    9.2283355      61.0689 
   24800    296.38706   -10443.024            0   -9560.4335    463.07256    787.12801    9.2331195    9.2331195    9.2331195    57.477117 
   24900    318.00386   -10504.041            0   -9557.0796   -8703.6872     788.3182    9.2377708    9.2377708    9.2377708    63.952131 
   25000    299.11376   -10445.038            0   -9554.3279   -18766.749    788.95036    9.2402395    9.2402395    9.2402395    53.421935 
Loop time of 18.0173 on 16 procs for 1000 steps with 1000 atoms

Performance: 4.795 ns/day, 5.005 hours/ns, 55.502 timesteps/s
94.9% CPU use with 16 MPI tasks x no OpenMP threads

MPI task timing breakdown:
Section |  min time  |  avg time  |  max time  |%varavg| %total
---------------------------------------------------------------
Pair    | 2.227      | 2.4399     | 2.5867     |   5.5 | 13.54
Neigh   | 0.76079    | 0.81036    | 0.85881    |   2.5 |  4.50
Comm    | 0.79845    | 0.99328    | 1.256      |  10.7 |  5.51
Output  | 9.219      | 9.5032     | 13.715     |  35.3 | 52.74
Modify  | 0.050194   | 4.2623     | 4.5466     |  52.7 | 23.66
Other   |            | 0.008209   |            |       |  0.05

Nlocal:    62.5 ave 67 max 58 min
Histogram: 3 1 1 1 0 2 3 3 1 1
Nghost:    1859.62 ave 1877 max 1844 min
Histogram: 2 1 2 2 1 3 1 1 2 1
Neighs:    0 ave 0 max 0 min
Histogram: 16 0 0 0 0 0 0 0 0 0
FullNghs:  18700.9 ave 20212 max 17158 min
Histogram: 4 0 1 1 0 2 3 4 0 1

Total # of neighbors = 299214
Ave neighs/atom = 299.214
Neighbor list builds = 1000
Dangerous builds not checked
Setting up Verlet run ...
  Unit style    : real
  Current step  : 25000
  Time step     : 1
Per MPI rank memory allocation (min/avg/max) = 4.576 | 4.578 | 4.58 Mbytes
Step Temp E_pair E_mol TotEng Press Volume Lx Ly Lz S/CPU 
   25000    299.11376   -10445.038            0   -9554.3279   -18766.749    788.95036    9.2402395    9.2402395    9.2402395            0 
   25100    309.14046   -10474.092            0   -9553.5241   -13807.108    788.74765     9.239448     9.239448     9.239448    69.108314 
   25200    298.87837   -10442.554            0   -9552.5455   -8654.8054    787.97553    9.2364321    9.2364321    9.2364321    61.272581 
   25300    302.19245   -10454.404            0   -9554.5267   -22264.962    786.97863    9.2325354    9.2325354    9.2325354    53.619786 
   25400    304.83492   -10464.453            0   -9556.7065   -14991.851    785.44594    9.2265378    9.2265378    9.2265378    74.716728 
   25500    313.66125   -10496.391            0   -9562.3618    5496.1228    783.26037     9.217972     9.217972     9.217972    52.103016 
   25600    301.49301   -10468.874            0   -9571.0796    -9488.331    780.93235    9.2088303    9.2088303    9.2088303    74.330653 
   25700    301.37644   -10481.753            0   -9584.3053   -2169.7247    778.17612    9.1979837    9.1979837    9.1979837    52.714372 
   25800    312.92591   -10532.164            0    -9600.324    12755.911    775.60739    9.1878518    9.1878518    9.1878518    77.743524 
   25900     308.5913   -10535.142            0   -9616.2099    24010.922    773.44158    9.1792917    9.1792917    9.1792917    54.563076 
   26000    300.47204   -10524.884            0   -9630.1293     15961.57    772.04288    9.1737551    9.1737551    9.1737551     71.04971 
Loop time of 15.9706 on 16 procs for 1000 steps with 1000 atoms

Performance: 5.410 ns/day, 4.436 hours/ns, 62.615 timesteps/s
95.0% CPU use with 16 MPI tasks x no OpenMP threads

MPI task timing breakdown:
Section |  min time  |  avg time  |  max time  |%varavg| %total
---------------------------------------------------------------
Pair    | 2.2298     | 2.3584     | 2.5715     |   4.7 | 14.77
Neigh   | 0.75539    | 0.78517    | 0.84658    |   2.1 |  4.92
Comm    | 0.81311    | 1.0872     | 1.2463     |   8.5 |  6.81
Output  | 7.9675     | 8.2034     | 11.68      |  31.3 | 51.37
Modify  | 0.051424   | 3.5283     | 3.7646     |  47.8 | 22.09
Other   |            | 0.008043   |            |       |  0.05

Nlocal:    62.5 ave 69 max 57 min
Histogram: 4 1 0 1 2 3 0 2 2 1
Nghost:    1864.25 ave 1882 max 1847 min
Histogram: 2 1 1 1 2 3 2 2 0 2
Neighs:    0 ave 0 max 0 min
Histogram: 16 0 0 0 0 0 0 0 0 0
FullNghs:  19103.4 ave 21256 max 17437 min
Histogram: 4 1 1 1 2 2 1 2 1 1

Total # of neighbors = 305654
Ave neighs/atom = 305.654
Neighbor list builds = 1000
Dangerous builds not checked
Setting up Verlet run ...
  Unit style    : real
  Current step  : 26000
  Time step     : 1
Per MPI rank memory allocation (min/avg/max) = 4.576 | 4.578 | 4.58 Mbytes
Step Temp E_pair E_mol TotEng Press Volume Lx Ly Lz S/CPU 
   26000    300.47204   -10524.884            0   -9630.1293     15961.57    772.04288    9.1737551    9.1737551    9.1737551            0 
   26100    302.18472   -10538.649            0   -9638.7942    25884.524    771.71147    9.1724422    9.1724422    9.1724422    56.348209 
   26200    296.46161   -10529.425            0   -9646.6125    13805.947    772.70008    9.1763574    9.1763574    9.1763574     67.81715 
   26300    293.37558   -10525.194            0   -9651.5711    12169.762    775.02798    9.1855633    9.1855633    9.1855633    46.278962 
   26400    290.85553   -10520.791            0   -9654.6732    3042.5455    778.44296    9.1990349    9.1990349    9.1990349    53.732964 
   26500    279.82806   -10488.251            0   -9654.9709    7791.3624    782.22728    9.2139175    9.2139175    9.2139175    47.366931 
   26600    298.00024   -10541.804            0   -9654.4098   -723.29647    786.43703    9.2304169    9.2304169    9.2304169    59.417735 
   26700    290.95334   -10515.429            0   -9649.0196   -2420.8181    790.23747    9.2452616    9.2452616    9.2452616    62.330917 
   26800    276.53119   -10463.665            0   -9640.2026   -16538.103    792.87819    9.2555484    9.2555484    9.2555484    49.036103 
   26900     286.9642   -10485.095            0   -9630.5651   -14254.609    793.69174     9.258713     9.258713     9.258713    42.506593 
   27000    295.05898   -10498.356            0   -9619.7206   -24441.406    792.88937    9.2555919    9.2555919    9.2555919    64.597055 
Loop time of 18.6096 on 16 procs for 1000 steps with 1000 atoms

Performance: 4.643 ns/day, 5.169 hours/ns, 53.736 timesteps/s
94.9% CPU use with 16 MPI tasks x no OpenMP threads

MPI task timing breakdown:
Section |  min time  |  avg time  |  max time  |%varavg| %total
---------------------------------------------------------------
Pair    | 2.2242     | 2.4066     | 2.5963     |   6.4 | 12.93
Neigh   | 0.75638    | 0.79917    | 0.86542    |   3.0 |  4.29
Comm    | 0.77914    | 1.0354     | 1.2578     |  12.1 |  5.56
Output  | 9.7104     | 9.999      | 14.277     |  34.9 | 53.73
Modify  | 0.08294    | 4.3613     | 4.6505     |  52.9 | 23.44
Other   |            | 0.008146   |            |       |  0.04

Nlocal:    62.5 ave 69 max 57 min
Histogram: 1 2 2 2 1 4 1 1 0 2
Nghost:    1837.69 ave 1853 max 1823 min
Histogram: 1 1 4 0 0 4 2 2 1 1
Neighs:    0 ave 0 max 0 min
Histogram: 16 0 0 0 0 0 0 0 0 0
FullNghs:  18575.9 ave 20560 max 16879 min
Histogram: 1 1 4 1 2 3 1 1 0 2

Total # of neighbors = 297214
Ave neighs/atom = 297.214
Neighbor list builds = 1000
Dangerous builds not checked
Setting up Verlet run ...
  Unit style    : real
  Current step  : 27000
  Time step     : 1
Per MPI rank memory allocation (min/avg/max) = 4.576 | 4.578 | 4.58 Mbytes
Step Temp E_pair E_mol TotEng Press Volume Lx Ly Lz S/CPU 
   27000    295.05898   -10498.356            0   -9619.7206   -24441.406    792.88937    9.2555919    9.2555919    9.2555919            0 
   27100    294.52307   -10486.509            0   -9609.4695   -7557.3771    790.35773    9.2457306    9.2457306    9.2457306    51.027633 
   27200    305.97798   -10512.446            0   -9601.2962   -19661.515    787.10574    9.2330324    9.2330324    9.2330324    62.428771 
   27300    295.95653   -10473.872            0   -9592.5643     1381.048    783.10689    9.2173699    9.2173699    9.2173699    50.666978 
   27400    305.51078   -10495.888            0   -9586.1292    415.75846    779.33493    9.2025471    9.2025471    9.2025471    62.074402 
   27500    310.76508   -10506.248            0   -9580.8425    21831.898    776.53446     9.191511     9.191511     9.191511    47.445918 
   27600    310.44803    -10502.12            0   -9577.6583    20151.154    775.40538     9.187054     9.187054     9.187054    56.102459 
   27700    320.74933   -10532.915            0    -9577.778    14564.881    775.80676    9.1886389    9.1886389    9.1886389     61.98335 
   27800    301.18222   -10475.757            0   -9578.8875    9929.1842    777.52671    9.1954243    9.1954243    9.1954243    57.555759 
   27900    302.93465   -10484.742            0   -9582.6539    12310.668    780.01193     9.205211     9.205211     9.205211    49.398268 
   28000    305.44883   -10496.897            0   -9587.3223    9030.2984    783.11892    9.2174171    9.2174171    9.2174171    51.842801 
Loop time of 18.3436 on 16 procs for 1000 steps with 1000 atoms

Performance: 4.710 ns/day, 5.095 hours/ns, 54.515 timesteps/s
[...]
  611700    312.43395   -11247.093            0   -10316.718    17672.092    757.51418    9.1158448    9.1158448    9.1158448    65.864707 
  611800    313.70576   -11262.943            0   -10328.781    1478.2544    759.57389    9.1240994    9.1240994    9.1240994    48.223205 
  611900    310.85959   -11268.305            0   -10342.619    966.34531    761.69989    9.1326041    9.1326041    9.1326041    61.182948 
  612000    315.96096   -11296.986            0   -10356.108   -800.00375    763.45985    9.1396325    9.1396325    9.1396325    46.923724 
  612100    288.59644    -11221.42            0   -10362.029   -22098.355    764.33031    9.1431047    9.1431047    9.1431047    64.803992 
  612200    300.61439   -11265.202            0   -10370.024   -15364.874     763.9967    9.1417743    9.1417743    9.1417743    40.845035 
  612300     301.3791   -11272.069            0   -10374.614   -16389.727    762.50259     9.135811     9.135811     9.135811    61.858611 
  612400    301.95467   -11278.258            0   -10379.089   -3314.6328    760.30586    9.1270293    9.1270293    9.1270293    53.569427 
  612500     297.3459   -11268.809            0   -10383.363    4788.3756    757.85862    9.1172262    9.1172262    9.1172262    65.260465 
  612600    309.35285   -11309.817            0   -10388.617     12584.46    755.60743    9.1081898    9.1081898    9.1081898    47.778288 
  612700    292.15128   -11260.886            0   -10390.909    20216.946    754.42774    9.1034473    9.1034473    9.1034473    52.584036 
  612800    308.42274   -11316.092            0   -10397.662     12550.18    754.54562    9.1039214    9.1039214    9.1039214     54.00496 
  612900    311.23478    -11329.34            0   -10402.536    7958.7252    755.68435    9.1084989    9.1084989    9.1084989    50.600507 
  613000    295.81702   -11289.325            0   -10408.433    2261.6718    757.61241    9.1162388    9.1162388    9.1162388     63.03052 
  613100    299.16119   -11304.289            0   -10413.438    2387.6562    759.78072    9.1249275    9.1249275    9.1249275    54.327286 
  613200    298.97182   -11308.158            0   -10417.871   -11377.578    761.84238    9.1331735    9.1331735    9.1331735    57.357145 
  613300    294.00962   -11296.034            0   -10420.524   -12581.242    763.24723     9.138784     9.138784     9.138784     45.41901 
  613400     291.6487   -11291.781            0   -10423.301   -9900.8122     763.3644    9.1392516    9.1392516    9.1392516    70.336642 
  613500    292.60633   -11297.194            0   -10425.862   -17612.772    762.35326    9.1352146    9.1352146    9.1352146    49.002234 
  613600    293.60582    -11301.34            0   -10427.032    1198.6416     760.3621    9.1272544    9.1272544    9.1272544    61.627873 
  613700    286.34634   -11280.339            0   -10427.648    7007.4417      757.961    9.1176368    9.1176368    9.1176368    46.855375 
  613800    293.06116   -11299.277            0   -10426.591    11740.247    755.88578    9.1093081    9.1093081    9.1093081    65.908518 
  613900    290.27329   -11286.447            0   -10422.063    20445.821    754.57805    9.1040519    9.1040519    9.1040519     52.63953 
  614000    290.98244   -11282.322            0   -10415.826    12517.428    754.32194    9.1030217    9.1030217    9.1030217    59.921079 
  614100    299.81959   -11300.456            0   -10407.645    8344.5681    755.46385    9.1076129    9.1076129    9.1076129     53.14413 
  614200    299.81093   -11287.874            0   -10395.088    6690.3595    757.65878    9.1164248    9.1164248    9.1164248    54.297485 
  614300    300.18861   -11275.098            0   -10381.187   -23.329437    760.41211    9.1274545    9.1274545    9.1274545    58.916404 
  614400    314.91593   -11306.789            0   -10369.023   -13026.846    763.08546    9.1381383    9.1381383    9.1381383     52.46288 
  614500    298.95892   -11247.245            0   -10356.996    -16002.56    764.99099    9.1457384    9.1457384    9.1457384    53.458701 
  614600    302.47245    -11249.19            0   -10348.479   -19065.394    765.63405    9.1483003    9.1483003    9.1483003    53.879463 
  614700    294.26218   -11219.098            0   -10342.835   -18198.441    764.88895    9.1453317    9.1453317    9.1453317    64.060989 
  614800    291.57183   -11206.246            0   -10337.995    -7949.181    763.33787    9.1391457    9.1391457    9.1391457    46.571878 
  614900    302.87644   -11237.188            0   -10335.273    141.00306    761.42968     9.131524     9.131524     9.131524    55.830158 
  615000     297.5006   -11218.746            0    -10332.84    4798.0257    759.46821    9.1236762    9.1236762    9.1236762    55.259749 
  615100     310.8897   -11258.734            0   -10332.957    8210.1441    757.95714    9.1176213    9.1176213    9.1176213     48.22798 
  615200    312.29453    -11265.24            0    -10335.28    8346.0342    757.39298    9.1153586    9.1153586    9.1153586    42.307188 
  615300    309.11438   -11261.434            0   -10340.944    15062.416     757.7241    9.1166867    9.1166867    9.1166867    46.317182 
  615400    298.18962   -11234.423            0   -10346.465    4386.2973    758.73528    9.1207404    9.1207404    9.1207404     56.95322 
  615500    300.45248   -11249.696            0       -10355    2428.9856    759.94579    9.1255883    9.1255883    9.1255883    55.630061 
  615600    296.04019   -11245.452            0   -10363.894    3440.3144    761.04805    9.1299982    9.1299982    9.1299982    74.107624 
  615700    299.49112   -11265.068            0   -10373.235   -6398.3575    762.05606    9.1340273    9.1340273    9.1340273    51.910949 
  615800    294.87219   -11260.302            0   -10382.223   -6502.4407    762.84874    9.1371933    9.1371933    9.1371933    65.082434 
  615900    294.04851   -11266.537            0   -10390.911   -11302.869    763.30476    9.1390136    9.1390136    9.1390136    56.228347 
  616000     290.5649   -11262.673            0    -10397.42   -10547.157    763.45117    9.1395979    9.1395979    9.1395979    61.191421 
  616100    290.68141    -11266.92            0   -10401.321   -15354.614    763.08326    9.1381295    9.1381295    9.1381295    50.629401 
  616200    295.38492   -11283.291            0   -10403.685    -5627.726    762.15917    9.1344393    9.1344393    9.1344393    45.118907 
  616300    305.62238   -11315.147            0   -10405.056   -5856.8818    760.83633    9.1291515    9.1291515    9.1291515    35.430432 
  616400    299.15024   -11295.306            0   -10404.487    2312.0382    759.43304    9.1235354    9.1235354    9.1235354    67.054776 
  616500    299.15058   -11295.236            0   -10404.417    11991.067    758.40435    9.1194141    9.1194141    9.1194141    56.300231 
  616600    296.62903   -11286.825            0   -10403.515    17946.425     758.0633    9.1180469    9.1180469    9.1180469    62.173018 
  616700    294.43953   -11279.621            0    -10402.83    6853.9342    758.32068    9.1190788    9.1190788    9.1190788    56.236049 
  616800    296.74363   -11285.872            0    -10402.22    2680.2273    759.13222    9.1223306    9.1223306    9.1223306    57.792298 
  616900    295.92569   -11282.795            0   -10401.579    3519.1541    760.38903    9.1273621    9.1273621    9.1273621    56.656153 
  617000    291.45525   -11268.715            0   -10400.811   -3406.4359    761.72218    9.1326932    9.1326932    9.1326932    50.795593 
  617100    303.34424   -11304.401            0   -10401.094   -13725.473    762.87412    9.1372946    9.1372946    9.1372946    67.675095 
  617200     286.1831   -11251.794            0    -10399.59   -14060.049    763.52853    9.1399066    9.1399066    9.1399066    51.688234 
  617300    303.00207   -11303.186            0   -10400.897   -14752.843    763.35209    9.1392025    9.1392025    9.1392025    63.250303 
  617400    295.87617   -11282.422            0   -10401.353   -10727.477    762.52157    9.1358868    9.1358868    9.1358868    57.954985 
  617500    297.29272   -11288.498            0   -10403.211   -1676.2198    761.29334     9.130979     9.130979     9.130979    77.488367 
  617600    303.05515   -11307.719            0   -10405.273    5770.3382    760.11987     9.126285     9.126285     9.126285    48.409186 
  617700    297.09076   -11291.753            0   -10407.068    16672.881     759.1592    9.1224387    9.1224387    9.1224387    54.869277 
  617800    295.08413    -11287.04            0    -10408.33    9076.2518    758.69955    9.1205972    9.1205972    9.1205972    62.192506 
  617900    294.96299   -11290.285            0   -10411.935    7507.5401    758.71767    9.1206698    9.1206698    9.1206698    53.201196 
  618000    298.00852    -11302.98            0   -10415.561   -3312.0283    759.27347    9.1228964    9.1228964    9.1228964     55.40742 
  618100     302.2929   -11322.529            0   -10422.352   -4840.5552    760.20308     9.126618     9.126618     9.126618    54.228307 
  618200     291.8789   -11297.542            0   -10428.377    4022.8307    761.14984    9.1304052    9.1304052    9.1304052    63.853452 
  618300     298.6393   -11326.521            0   -10437.224   -10602.619    761.92097    9.1334876    9.1334876    9.1334876    49.658744 
  618400    298.81134   -11335.609            0     -10445.8   -3645.1042    762.12247    9.1342927    9.1342927    9.1342927    73.514218 
  618500    291.49425   -11321.274            0   -10453.254   -8125.4792    761.54268    9.1319758    9.1319758    9.1319758    53.669043 
  618600    289.95207   -11322.441            0   -10459.013   -22222.838    760.46088    9.1276496    9.1276496    9.1276496    70.163779 
  618700    287.19024   -11318.309            0   -10463.106   -4984.6726    758.82013    9.1210803    9.1210803    9.1210803    44.507986 
  618800    297.15607   -11351.122            0   -10466.241    7874.6588    757.23041    9.1147064    9.1147064    9.1147064    44.572647 
  618900    292.49612   -11338.591            0   -10467.588    10429.158    756.17069    9.1104525    9.1104525    9.1104525    73.418152 
  619000     294.5208   -11344.102            0   -10467.069    10667.914    755.93535    9.1095072    9.1095072    9.1095072     51.54417 
  619100    290.84712   -11329.531            0   -10463.438    6646.2694    756.71539    9.1126395    9.1126395    9.1126395    55.336759 
  619200    286.97399   -11312.701            0   -10458.142    4038.7022    758.18629      9.11854      9.11854      9.11854    62.117435 
  619300    289.57508   -11312.479            0   -10450.174   -12193.268    759.98688    9.1257528    9.1257528    9.1257528    35.527634 
  619400    285.72209   -11289.185            0   -10438.353   -7356.6809    761.32022    9.1310865    9.1310865    9.1310865    52.014191 
  619500    292.73411   -11296.861            0   -10425.149   -7534.6673    762.21744    9.1346721    9.1346721    9.1346721    48.337754 
  619600    294.11746   -11288.784            0   -10412.953   -7704.0159    762.56965    9.1360788    9.1360788    9.1360788     55.67233 
  619700    306.45934   -11313.798            0   -10401.214   -9978.5827    762.48514    9.1357413    9.1357413    9.1357413    58.896406 
  619800    302.81098   -11294.173            0   -10392.453   -5430.3102    761.90735    9.1334332    9.1334332    9.1334332    50.655772 
  619900    304.48684   -11291.132            0   -10384.422    1210.2956    760.85564    9.1292287    9.1292287    9.1292287    68.629261 
  620000    295.18825   -11258.414            0   -10379.394    5923.6038    759.59043    9.1241657    9.1241657    9.1241657    50.329048 
  620100    304.54059    -11283.51            0    -10376.64      6356.33    758.44835    9.1195905    9.1195905    9.1195905    49.213318 
  620200     301.2403   -11271.268            0   -10374.226    3391.3191    757.71411    9.1166467    9.1166467    9.1166467     47.42657 
  620300     299.9344   -11265.669            0   -10372.516    15995.162    757.72949    9.1167084    9.1167084    9.1167084    63.768303 
  620400    303.41369   -11275.029            0   -10371.515    15406.581    758.57191    9.1200857    9.1200857    9.1200857    52.678283 
  620500     304.8846   -11279.849            0   -10371.955    5287.4863    760.38461    9.1273444    9.1273444    9.1273444    65.018966 
  620600    297.44971   -11257.928            0   -10372.174    6797.8818    762.57104    9.1360844    9.1360844    9.1360844     45.99835 
  620700    304.08799   -11279.639            0   -10374.117   -13935.343    764.64398    9.1443553    9.1443553    9.1443553    48.499074 
  620800    307.04534   -11290.664            0   -10376.336   -16335.604    765.81395    9.1490168    9.1490168    9.1490168    64.085786 
  620900    310.08351   -11304.463            0   -10381.088   -20651.102    765.61276    9.1482155    9.1482155    9.1482155    39.504186 
  621000    309.05113   -11306.881            0   -10386.579   -19402.866    763.96102     9.141632     9.141632     9.141632    63.167127 
  621100    287.28563   -11248.146            0   -10392.659    7524.6164    761.31573    9.1310685    9.1310685    9.1310685    57.341108 
  621200    299.67218   -11294.304            0   -10401.931    9869.5632    758.46324    9.1196502    9.1196502    9.1196502    59.907365 
  621300    294.71755    -11291.06            0   -10413.442    19847.313     756.0733    9.1100613    9.1100613    9.1100613      45.8668 
  621400    293.49834   -11298.911            0   -10424.923    16359.236    754.66464    9.1044001    9.1044001    9.1044001    69.353289 
  621500    293.88864    -11312.92            0    -10437.77     25321.73    754.43785     9.103488     9.103488     9.103488    54.332557 
  621600    293.04809   -11320.926            0   -10448.279      13759.1    755.64048    9.1083226    9.1083226    9.1083226     66.60624 
  621700    294.06381   -11332.353            0   -10456.681    6254.5669    757.99672      9.11778      9.11778      9.11778    53.475351 
  621800    288.50961   -11320.693            0   -10461.561   -5766.7062    761.14281    9.1303771    9.1303771    9.1303771    60.791061 
  621900    286.80209   -11317.221            0   -10463.173   -10050.431    764.06865    9.1420613    9.1420613    9.1420613    48.486507 
  622000    287.25896   -11316.287            0   -10460.879   -17384.162    765.92162    9.1494455    9.1494455    9.1494455    49.612855 
  622100    278.00428   -11286.267            0   -10458.418   -21856.334    766.37237      9.15124      9.15124      9.15124    51.012837 
  622200    290.90873   -11321.594            0   -10455.317   -21399.174    765.25854    9.1468045    9.1468045    9.1468045    57.868687 
  622300     292.9533   -11323.375            0    -10451.01    -11181.62     762.6825    9.1365295    9.1365295    9.1365295    48.642839 
  622400    288.38519   -11303.893            0   -10445.131    10270.944    759.34412    9.1231793    9.1231793    9.1231793    46.661942 
  622500    294.77277   -11318.985            0   -10441.202    11908.853    756.24578     9.110754     9.110754     9.110754    46.439605 
  622600    306.10567    -11347.54            0    -10436.01    18676.746    754.17066    9.1024132    9.1024132    9.1024132    57.352203 
  622700    289.77084   -11293.861            0   -10430.973     26042.41    753.64679    9.1003051    9.1003051    9.1003051    61.989147 
  622800    306.33981   -11341.435            0   -10429.207        16512    755.13149    9.1062771    9.1062771    9.1062771    52.142769 
  622900    300.43379   -11319.354            0   -10424.714   -619.68692    758.01297    9.1178451    9.1178451    9.1178451     60.14434 
  623000    306.71024   -11335.214            0   -10421.883   -9001.6856    761.21989    9.1306853    9.1306853    9.1306853    43.423067 
  623100    309.16231   -11336.725            0   -10416.092   -12138.602    764.05697    9.1420147    9.1420147    9.1420147    50.554434 
  623200    301.23771   -11308.157            0   -10411.122    -15930.69    765.82872    9.1490756    9.1490756    9.1490756    66.697174 
  623300     300.5831   -11302.042            0   -10406.957   -22942.026    766.11133    9.1502009    9.1502009    9.1502009    55.434701 
  623400    304.64414    -11309.95            0   -10402.771   -21157.575       765.03    9.1458938    9.1458938    9.1458938    71.449211 
  623500    303.32582   -11301.594            0   -10398.342   -5522.3975    762.99705    9.1377854    9.1377854    9.1377854    50.491077 
  623600    304.49708   -11298.568            0   -10391.827   -4219.5542    760.56209    9.1280545    9.1280545    9.1280545    69.411518 
  623700    298.79426   -11275.116            0   -10385.358    7675.7277    758.53352    9.1199319    9.1199319    9.1199319    56.717526 
  623800    306.32894   -11294.364            0   -10382.169    25809.421    757.26446     9.114843     9.114843     9.114843    64.726546 
  623900    308.84659   -11296.991            0   -10377.298    10853.135    756.92496    9.1134806    9.1134806    9.1134806    51.308529 
  624000    316.79267   -11317.808            0   -10374.454    7608.8605    757.41065    9.1154295    9.1154295    9.1154295    54.200214 
  624100    310.91467   -11296.345            0   -10370.494    230.89445    758.52384     9.119893     9.119893     9.119893    49.609452 
  624200     303.5051   -11270.751            0   -10366.964    7831.4136    759.90214    9.1254136    9.1254136    9.1254136    42.486413 
  624300    295.41452   -11245.206            0   -10365.512   -3825.5561    761.30929    9.1310427    9.1310427    9.1310427     58.09882 
  624400    314.25153   -11300.006            0   -10364.218   -523.91435    762.33701    9.1351497    9.1351497    9.1351497    55.540927 
  624500    297.96904   -11247.538            0   -10360.237    -8851.052    763.02943    9.1379146    9.1379146    9.1379146    65.109291 
  624600    308.54914   -11279.712            0   -10360.906    -8323.016    763.22423    9.1386922    9.1386922    9.1386922    55.897093 
  624700    307.95402   -11277.749            0   -10360.715    410.69111    762.87134    9.1372835    9.1372835    9.1372835    66.113071 
  624800    306.29499   -11275.568            0   -10363.474   -13465.846    762.27327    9.1348951    9.1348951    9.1348951    42.800187 
  624900    303.39293   -11269.661            0   -10366.209    10502.516    761.33382    9.1311408    9.1311408    9.1311408    76.688056 
  625000    311.94461   -11298.618            0     -10369.7    7559.2272    760.66203    9.1284543    9.1284543    9.1284543    45.784708 
Loop time of 1868.67 on 16 procs for 100000 steps with 1000 atoms

Performance: 4.624 ns/day, 5.191 hours/ns, 53.514 timesteps/s
94.8% CPU use with 16 MPI tasks x no OpenMP threads

MPI task timing breakdown:
Section |  min time  |  avg time  |  max time  |%varavg| %total
---------------------------------------------------------------
Pair    | 229.3      | 252.78     | 269.5      |  69.2 | 13.53
Neigh   | 80.515     | 88.369     | 93.939     |  40.8 |  4.73
Comm    | 63.48      | 85.866     | 117.4      | 158.9 |  4.60
Output  | 971.6      | 1000.5     | 1425.1     | 346.6 | 53.54
Modify  | 16.13      | 440.26     | 469.18     | 521.9 | 23.56
Other   |            | 0.9009     |            |       |  0.05

Nlocal:    62.5 ave 69 max 55 min
Histogram: 2 1 0 1 0 7 0 3 0 2
Nghost:    1892.31 ave 1917 max 1867 min
Histogram: 1 0 2 4 1 3 1 1 2 1
Neighs:    0 ave 0 max 0 min
Histogram: 16 0 0 0 0 0 0 0 0 0
FullNghs:  19379.1 ave 21558 max 17082 min
Histogram: 3 0 1 0 2 4 2 2 1 1

Total # of neighbors = 310066
Ave neighs/atom = 310.066
Neighbor list builds = 100000
Dangerous builds not checked
Total wall time: 3:16:27
