LAMMPS (16 Mar 2018)
Reading data file ...
  orthogonal box = (-4.72052 -4.72052 -4.72052) to (4.72052 4.72052 4.72052)
  2 by 2 by 4 MPI processor grid
  reading atoms ...
  1000 atoms
Reading potential file /home/fs01/ajm529/lammps-16Mar18/potentials/sw_potentials/AG/eps2.23.sw with DATE: 2008-01-29
Neighbor list info ...
  update every 1 steps, delay 0 steps, check no
  max neighbors/atom: 2000, page size: 100000
  master list distance cutoff = 3.836
  ghost atom cutoff = 3.836
  binsize = 1.918, bins = 5 5 5
  1 neighbor lists, perpetual/occasional/extra = 1 0 0
  (1) pair sw, perpetual
      attributes: full, newton on
      pair build: full/bin/atomonly
      stencil: full/bin/3d
      bin: standard
Setting up Verlet run ...
  Unit style    : real
  Current step  : 0
  Time step     : 1
Per MPI rank memory allocation (min/avg/max) = 3.517 | 3.519 | 3.521 Mbytes
Step Temp E_pair E_mol TotEng Press Volume Lx Ly Lz S/CPU 
       0          300   -10148.323            0   -9254.9744   -33974.531    841.51075    9.4410411    9.4410411    9.4410411            0 
     100    320.29519   -10212.959            0   -9259.1749   -38759.782    839.55202    9.4337103    9.4337103    9.4337103     59.20476 
     200    320.39817   -10224.086            0   -9269.9949   -29098.947    834.53326    9.4148748    9.4148748    9.4148748    44.856823 
     300    336.00708   -10288.521            0   -9287.9495   -34252.479    827.14517    9.3870092    9.3870092    9.3870092    67.877734 
     400    328.13311   -10288.312            0   -9311.1877   -17694.129    817.85331    9.3517267    9.3517267    9.3517267    52.760472 
     500    323.16017   -10292.954            0   -9330.6379   -9815.3116    808.38038    9.3154804    9.3154804    9.3154804    67.443804 
     600     332.9646   -10339.471            0   -9347.9588   -242.74289    799.39463    9.2808355    9.2808355    9.2808355    49.757738 
     700    323.21137   -10322.543            0   -9360.0746    20403.197    791.75763    9.2511861    9.2511861    9.2511861    70.136578 
     800    329.96537   -10357.419            0   -9374.8389    28275.265    786.36561    9.2301375    9.2301375    9.2301375    58.631996 
     900    322.13285   -10350.601            0   -9391.3444    24144.254    783.37998    9.2184412    9.2184412    9.2184412    57.906733 
    1000    322.17738   -10368.091            0   -9408.7017    22463.356    782.32256    9.2142916    9.2142916    9.2142916    65.401946 
Loop time of 17.1667 on 16 procs for 1000 steps with 1000 atoms

Performance: 5.033 ns/day, 4.769 hours/ns, 58.252 timesteps/s
94.9% CPU use with 16 MPI tasks x no OpenMP threads

MPI task timing breakdown:
Section |  min time  |  avg time  |  max time  |%varavg| %total
---------------------------------------------------------------
Pair    | 2.2661     | 2.4068     | 2.5503     |   5.0 | 14.02
Neigh   | 0.79072    | 0.82998    | 0.86996    |   2.5 |  4.83
Comm    | 0.69754    | 0.86262    | 1.0437     |  10.5 |  5.02
Output  | 9.0178     | 9.2695     | 12.991     |  31.6 | 54.00
Modify  | 0.071535   | 3.7894     | 4.0422     |  49.3 | 22.07
Other   |            | 0.008431   |            |       |  0.05

Nlocal:    62.5 ave 68 max 56 min
Histogram: 1 2 2 0 0 3 1 5 0 2
Nghost:    1855.5 ave 1863 max 1842 min
Histogram: 1 1 0 0 3 0 4 0 3 4
Neighs:    0 ave 0 max 0 min
Histogram: 16 0 0 0 0 0 0 0 0 0
FullNghs:  18886.1 ave 20665 max 16969 min
Histogram: 1 3 1 0 3 0 2 4 0 2

Total # of neighbors = 302178
Ave neighs/atom = 302.178
Neighbor list builds = 1000
Dangerous builds not checked
Setting up Verlet run ...
  Unit style    : real
  Current step  : 1000
  Time step     : 1
Per MPI rank memory allocation (min/avg/max) = 3.522 | 4.411 | 4.579 Mbytes
Step Temp E_pair E_mol TotEng Press Volume Lx Ly Lz S/CPU 
    1000    322.17738   -10368.091            0   -9408.7017    22463.356    782.32256    9.2142916    9.2142916    9.2142916            0 
    1100    342.71848   -10450.146            0   -9429.5885    10763.765    782.78659     9.216113     9.216113     9.216113    52.877875 
    1200    322.78867   -10410.869            0    -9449.659    15717.291    784.38194    9.2223697    9.2223697    9.2223697    67.466032 
    1300    317.85296   -10414.985            0   -9468.4727   -9931.7554    786.76695    9.2317075    9.2317075    9.2317075     48.74958 
    1400    327.29652    -10462.15            0   -9487.5166   -6603.1126    788.76754    9.2395257    9.2395257    9.2395257    63.133601 
    1500     319.5811   -10454.552            0   -9502.8939    -10835.52    790.35658    9.2457261    9.2457261    9.2457261    46.828227 
    1600    296.42073   -10399.941            0   -9517.2503   -4114.4579    791.60434    9.2505891    9.2505891    9.2505891    64.813079 
    1700    297.14196    -10416.97            0    -9532.132   -11656.438    792.52729    9.2541828    9.2541828    9.2541828    52.519489 
    1800    298.11583   -10432.879            0   -9545.1414   -20007.669    792.77594    9.2551506    9.2551506    9.2551506      65.8446 
    1900    300.01503   -10451.342            0   -9557.9481   -12198.062    792.21779     9.252978     9.252978     9.252978    56.488812 
    2000     299.0685   -10461.597            0   -9571.0225   -21630.684    790.83744    9.2476008    9.2476008    9.2476008    70.601626 
Loop time of 17.2964 on 16 procs for 1000 steps with 1000 atoms

Performance: 4.995 ns/day, 4.805 hours/ns, 57.815 timesteps/s
95.0% CPU use with 16 MPI tasks x no OpenMP threads

MPI task timing breakdown:
Section |  min time  |  avg time  |  max time  |%varavg| %total
---------------------------------------------------------------
Pair    | 2.352      | 2.5253     | 2.6382     |   4.6 | 14.60
Neigh   | 0.79012    | 0.83904    | 0.87651    |   2.2 |  4.85
Comm    | 0.72719    | 0.8622     | 1.0853     |   9.8 |  4.98
Output  | 8.6538     | 8.9262     | 12.961     |  34.9 | 51.61
Modify  | 0.10186    | 4.1352     | 4.4075     |  51.2 | 23.91
Other   |            | 0.00849    |            |       |  0.05

Nlocal:    62.5 ave 69 max 57 min
Histogram: 1 1 1 2 4 4 1 0 1 1
Nghost:    1836.38 ave 1854 max 1818 min
Histogram: 2 1 0 2 1 4 2 3 0 1
Neighs:    0 ave 0 max 0 min
Histogram: 16 0 0 0 0 0 0 0 0 0
FullNghs:  18650.4 ave 20710 max 17001 min
Histogram: 1 1 2 3 4 2 1 1 0 1

Total # of neighbors = 298406
Ave neighs/atom = 298.406
Neighbor list builds = 1000
Dangerous builds not checked
Setting up Verlet run ...
  Unit style    : real
  Current step  : 2000
  Time step     : 1
Per MPI rank memory allocation (min/avg/max) = 3.771 | 4.528 | 4.579 Mbytes
Step Temp E_pair E_mol TotEng Press Volume Lx Ly Lz S/CPU 
    2000     299.0685   -10461.597            0   -9571.0225   -21630.684    790.83744    9.2476008    9.2476008    9.2476008            0 
    2100    307.41589   -10497.894            0   -9582.4618    10078.341    788.98803    9.2403865    9.2403865    9.2403865    44.912783 
    2200    293.99593   -10467.227            0   -9591.7571   -10325.618    787.31195    9.2338386    9.2338386    9.2338386      58.3306 
    2300    303.26914   -10505.695            0   -9602.6112    6899.7296    785.77026    9.2278076    9.2278076    9.2278076    48.411774 
    2400    304.18826   -10516.638            0   -9610.8172    12087.361    784.63722    9.2233701    9.2233701    9.2233701    46.861387 
    2500    296.47022    -10501.88            0   -9619.0421    2461.9683    783.96815    9.2207477    9.2207477    9.2207477     49.92045 
    2600    299.18869   -10517.771            0   -9626.8384   -1960.2791    783.42729    9.2186268    9.2186268    9.2186268    38.244872 
    2700    300.37142   -10528.841            0   -9634.3865    1346.9236    783.15743    9.2175682    9.2175682    9.2175682    42.991217 
    2800    294.97615   -10518.788            0   -9640.3993    17766.709    783.30703    9.2181551    9.2181551    9.2181551    63.232055 
    2900    303.37836   -10549.925            0   -9646.5161   -6500.2739    783.61526     9.219364     9.219364     9.219364    52.089979 
    3000     300.7785   -10547.418            0   -9651.7506   -19652.426    783.60632    9.2193289    9.2193289    9.2193289    62.984869 
Loop time of 20.1734 on 16 procs for 1000 steps with 1000 atoms

Performance: 4.283 ns/day, 5.604 hours/ns, 49.570 timesteps/s
94.7% CPU use with 16 MPI tasks x no OpenMP threads

MPI task timing breakdown:
Section |  min time  |  avg time  |  max time  |%varavg| %total
---------------------------------------------------------------
Pair    | 2.4103     | 2.5572     | 2.7013     |   4.3 | 12.68
Neigh   | 0.80819    | 0.84247    | 0.89006    |   2.5 |  4.18
Comm    | 0.72007    | 0.88832    | 1.0712     |   9.6 |  4.40
Output  | 10.791     | 11.107     | 15.803     |  36.4 | 55.06
Modify  | 0.072394   | 4.7694     | 5.097      |  55.5 | 23.64
Other   |            | 0.008574   |            |       |  0.04

Nlocal:    62.5 ave 66 max 60 min
Histogram: 3 3 0 2 0 3 3 0 0 2
Nghost:    1858.12 ave 1876 max 1845 min
Histogram: 3 2 2 1 1 2 2 0 2 1
Neighs:    0 ave 0 max 0 min
Histogram: 16 0 0 0 0 0 0 0 0 0
FullNghs:  18815.4 ave 19867 max 17972 min
Histogram: 3 2 1 1 1 3 2 1 0 2

Total # of neighbors = 301046
Ave neighs/atom = 301.046
Neighbor list builds = 1000
Dangerous builds not checked
Setting up Verlet run ...
  Unit style    : real
  Current step  : 3000
  Time step     : 1
Per MPI rank memory allocation (min/avg/max) = 3.771 | 4.528 | 4.579 Mbytes
Step Temp E_pair E_mol TotEng Press Volume Lx Ly Lz S/CPU 
    3000     300.7785   -10547.418            0   -9651.7506   -19652.426    783.60632    9.2193289    9.2193289    9.2193289            0 
    3100    296.63834   -10537.892            0   -9654.5533    2536.7916    782.82293    9.2162556    9.2162556    9.2162556    50.647395 
    3200     302.1536   -10556.632            0   -9656.8704   -4787.0213     781.6758    9.2117517    9.2117517    9.2117517    53.361059 
    3300    299.13561    -10548.19            0   -9657.4156    11880.446    780.08549    9.2055004    9.2055004    9.2055004    69.503513 
    3400    289.09776   -10517.417            0   -9656.5333    3947.7701    778.64149    9.1998168    9.1998168    9.1998168    53.573183 
    3500    292.34243   -10524.068            0   -9653.5226     5416.172    777.46472    9.1951799    9.1951799    9.1951799    68.936156 
    3600    293.45006   -10522.319            0   -9648.4752    8190.3406    776.55312    9.1915846    9.1915846    9.1915846    49.162444 
    3700    287.83803   -10499.187            0   -9642.0546    11730.209    776.27934    9.1905043    9.1905043    9.1905043    53.311194 
    3800    284.17506   -10482.123            0    -9635.898     12645.82    776.94183     9.193118     9.193118     9.193118     67.78647 
    3900    301.59541   -10525.742            0   -9627.6426    22037.937    778.47737    9.1991704    9.1991704    9.1991704    47.526513 
    4000    296.07502   -10500.765            0   -9619.1043   -2199.1044    780.54131     9.207293     9.207293     9.207293    63.183507 
Loop time of 17.6763 on 16 procs for 1000 steps with 1000 atoms

Performance: 4.888 ns/day, 4.910 hours/ns, 56.573 timesteps/s
94.9% CPU use with 16 MPI tasks x no OpenMP threads

MPI task timing breakdown:
Section |  min time  |  avg time  |  max time  |%varavg| %total
---------------------------------------------------------------
Pair    | 2.4268     | 2.5461     | 2.6967     |   5.0 | 14.40
Neigh   | 0.80424    | 0.83495    | 0.88958    |   2.3 |  4.72
Comm    | 0.74222    | 0.94778    | 1.0975     |  10.0 |  5.36
Output  | 8.7148     | 9.0037     | 13.286     |  36.8 | 50.94
Modify  | 0.052344   | 4.3352     | 4.6245     |  53.1 | 24.53
Other   |            | 0.008509   |            |       |  0.05

Nlocal:    62.5 ave 69 max 57 min
Histogram: 4 0 1 1 2 2 2 3 0 1
Nghost:    1873.38 ave 1887 max 1865 min
Histogram: 4 3 0 4 0 1 0 0 1 3
Neighs:    0 ave 0 max 0 min
Histogram: 16 0 0 0 0 0 0 0 0 0
FullNghs:  18928.4 ave 20960 max 17209 min
Histogram: 4 0 1 1 2 1 3 3 0 1

Total # of neighbors = 302854
Ave neighs/atom = 302.854
Neighbor list builds = 1000
Dangerous builds not checked
Setting up Verlet run ...
  Unit style    : real
  Current step  : 4000
  Time step     : 1
Per MPI rank memory allocation (min/avg/max) = 3.771 | 4.528 | 4.579 Mbytes
Step Temp E_pair E_mol TotEng Press Volume Lx Ly Lz S/CPU 
    4000    296.07502   -10500.765            0   -9619.1043   -2199.1044    780.54131     9.207293     9.207293     9.207293            0 
    4100    302.62313   -10511.095            0   -9609.9355    4028.5801    782.49393    9.2149644    9.2149644    9.2149644    52.559191 
    4200    308.68065   -10520.243            0   -9601.0445    4049.9717    784.69573    9.2235993    9.2235993    9.2235993    65.951725 
    4300    292.55869   -10462.666            0   -9591.4763    -1370.749    787.30854    9.2338253    9.2338253    9.2338253    53.016362 
    4400    298.63609   -10474.453            0   -9585.1655    2698.2395    789.98085    9.2442608    9.2442608    9.2442608    51.102183 
    4500    312.65214   -10510.732            0   -9579.7075   -6821.1947    792.73064    9.2549743    9.2549743    9.2549743    61.517859 
    4600    300.57195   -10469.319            0   -9574.2669   -20732.777    795.04821    9.2639845    9.2639845    9.2639845    51.222069 
    4700    291.88669   -10439.331            0   -9570.1427   -15485.902    796.28567    9.2687884    9.2687884    9.2687884    63.789018 
    4800    301.37259   -10464.014            0   -9566.5783   -5266.3388    796.93497     9.271307     9.271307     9.271307    52.566521 
    4900    297.25709   -10450.131            0   -9564.9503   -396.06934    797.09349    9.2719217    9.2719217    9.2719217    49.870407 
    5000    301.47386   -10460.416            0   -9562.6782    799.07798    796.91349    9.2712237    9.2712237    9.2712237     52.41191 
Loop time of 18.223 on 16 procs for 1000 steps with 1000 atoms

Performance: 4.741 ns/day, 5.062 hours/ns, 54.876 timesteps/s
94.9% CPU use with 16 MPI tasks x no OpenMP threads

MPI task timing breakdown:
Section |  min time  |  avg time  |  max time  |%varavg| %total
---------------------------------------------------------------
Pair    | 2.3759     | 2.4969     | 2.6028     |   4.2 | 13.70
Neigh   | 0.80671    | 0.83621    | 0.88204    |   1.9 |  4.59
Comm    | 0.72189    | 0.83934    | 0.97743    |   8.5 |  4.61
Output  | 9.4646     | 9.7487     | 13.96      |  34.8 | 53.50
Modify  | 0.080821   | 4.2934     | 4.5784     |  52.5 | 23.56
Other   |            | 0.008464   |            |       |  0.05

Nlocal:    62.5 ave 68 max 56 min
Histogram: 2 0 1 1 2 4 1 1 2 2
Nghost:    1843.94 ave 1872 max 1806 min
Histogram: 1 0 1 2 2 3 2 1 1 3
Neighs:    0 ave 0 max 0 min
Histogram: 16 0 0 0 0 0 0 0 0 0
FullNghs:  18521.5 ave 20310 max 16458 min
Histogram: 1 1 1 1 3 3 1 2 2 1

Total # of neighbors = 296344
Ave neighs/atom = 296.344
Neighbor list builds = 1000
Dangerous builds not checked
Setting up Verlet run ...
  Unit style    : real
  Current step  : 5000
  Time step     : 1
Per MPI rank memory allocation (min/avg/max) = 4.577 | 4.579 | 4.58 Mbytes
Step Temp E_pair E_mol TotEng Press Volume Lx Ly Lz S/CPU 
    5000    301.47386   -10460.416            0   -9562.6782    799.07798    796.91349    9.2712237    9.2712237    9.2712237            0 
    5100    302.00942   -10460.447            0   -9561.1148   -2265.2942    796.53107    9.2697405    9.2697405    9.2697405    59.886687 
    5200    297.55033   -10444.781            0   -9558.7268   -1193.3758    795.56988    9.2660103    9.2660103    9.2660103     66.15312 
    5300    303.69019   -10462.649            0   -9558.3115   -11138.051     794.0483    9.2600992    9.2600992    9.2600992    48.328753 
    5400     298.2713   -10445.857            0   -9557.6558    10403.145    791.92809      9.25185      9.25185      9.25185    55.713806 
    5500     299.6602   -10448.814            0   -9556.4767    1585.2584    789.49975    9.2423838    9.2423838    9.2423838    51.913569 
    5600    304.31249   -10460.627            0   -9554.4361   -8124.7444    786.77439    9.2317366    9.2317366    9.2317366    57.072205 
    5700    302.43132   -10454.086            0   -9553.4976   -2511.3711    783.87848    9.2203962    9.2203962    9.2203962    57.556042 
    5800    300.45671   -10447.985            0   -9553.2767    14138.899    781.09153     9.209456     9.209456     9.209456    56.195436 
    5900    313.04953   -10488.307            0   -9556.0989    10731.118    779.31375    9.2024637    9.2024637    9.2024637    55.441513 
    6000     304.8621   -10468.892            0   -9561.0652    14550.443    778.84755    9.2006283    9.2006283    9.2006283    47.816953 
Loop time of 18.1359 on 16 procs for 1000 steps with 1000 atoms

Performance: 4.764 ns/day, 5.038 hours/ns, 55.139 timesteps/s
94.9% CPU use with 16 MPI tasks x no OpenMP threads

MPI task timing breakdown:
Section |  min time  |  avg time  |  max time  |%varavg| %total
---------------------------------------------------------------
Pair    | 2.3996     | 2.4923     | 2.5947     |   3.3 | 13.74
Neigh   | 0.79914    | 0.83162    | 0.85734    |   1.7 |  4.59
Comm    | 0.79429    | 0.91565    | 1.0408     |   6.6 |  5.05
Output  | 9.2905     | 9.5768     | 13.817     |  35.4 | 52.81
Modify  | 0.072334   | 4.3111     | 4.5978     |  52.7 | 23.77
Other   |            | 0.008453   |            |       |  0.05

Nlocal:    62.5 ave 69 max 58 min
Histogram: 5 1 0 2 1 1 2 3 0 1
Nghost:    1878.88 ave 1891 max 1867 min
Histogram: 2 1 1 3 3 0 2 0 1 3
Neighs:    0 ave 0 max 0 min
Histogram: 16 0 0 0 0 0 0 0 0 0
FullNghs:  18951.5 ave 20968 max 17476 min
Histogram: 4 2 0 2 1 1 2 3 0 1

Total # of neighbors = 303224
Ave neighs/atom = 303.224
Neighbor list builds = 1000
Dangerous builds not checked
Setting up Verlet run ...
  Unit style    : real
  Current step  : 6000
  Time step     : 1
Per MPI rank memory allocation (min/avg/max) = 4.577 | 4.579 | 4.58 Mbytes
Step Temp E_pair E_mol TotEng Press Volume Lx Ly Lz S/CPU 
    6000     304.8621   -10468.892            0   -9561.0652    14550.443    778.84755    9.2006283    9.2006283    9.2006283            0 
    6100    313.76079   -10504.497            0   -9570.1713    18216.032    779.73324    9.2041146    9.2041146    9.2041146    68.629391 
    6200    307.23224    -10496.63            0   -9581.7452    8948.1928    781.90988    9.2126711    9.2126711    9.2126711     53.26456 
    6300    299.78881   -10484.728            0   -9592.0083    6648.3952    784.66405    9.2234752    9.2234752    9.2234752    53.304531 
    6400    295.60454   -10482.838            0   -9602.5784    9299.7487    787.38066    9.2341072    9.2341072    9.2341072    58.908274 
    6500     295.4133   -10491.857            0   -9612.1665    4930.1316    789.94001    9.2441015    9.2441015    9.2441015    52.053821 
    6600     296.1856   -10501.841            0    -9619.851   -17477.498    791.73241    9.2510879    9.2510879    9.2510879    52.044008 
    6700    295.12051   -10504.361            0   -9625.5428   -14281.999    792.55844    9.2543041    9.2543041    9.2543041    42.757442 
    6800    309.34386   -10551.046            0   -9629.8733   -18768.809    792.80404    9.2552599    9.2552599    9.2552599    46.811549 
    6900    298.13562    -10519.96            0   -9632.1628   -2256.9137    792.12442    9.2526145    9.2526145    9.2526145    63.889294 
    7000     293.7485   -10508.311            0   -9633.5777   -9645.5077    790.74943    9.2472577    9.2472577    9.2472577    46.564138 
Loop time of 18.9384 on 16 procs for 1000 steps with 1000 atoms

Performance: 4.562 ns/day, 5.261 hours/ns, 52.803 timesteps/s
94.8% CPU use with 16 MPI tasks x no OpenMP threads

MPI task timing breakdown:
Section |  min time  |  avg time  |  max time  |%varavg| %total
---------------------------------------------------------------
Pair    | 2.34       | 2.4874     | 2.5775     |   4.0 | 13.13
Neigh   | 0.79278    | 0.82987    | 0.86453    |   1.8 |  4.38
Comm    | 0.81698    | 0.91169    | 1.098      |   8.0 |  4.81
Output  | 9.7895     | 10.092     | 14.581     |  36.5 | 53.29
Modify  | 0.12623    | 4.6089     | 4.9129     |  53.9 | 24.34
Other   |            | 0.0084     |            |       |  0.04

Nlocal:    62.5 ave 70 max 54 min
Histogram: 1 1 0 2 1 5 4 0 1 1
Nghost:    1844.56 ave 1856 max 1836 min
Histogram: 2 1 2 0 4 3 3 0 0 1
Neighs:    0 ave 0 max 0 min
Histogram: 16 0 0 0 0 0 0 0 0 0
FullNghs:  18667.5 ave 20935 max 16092 min
Histogram: 1 1 1 1 1 4 4 1 1 1

Total # of neighbors = 298680
Ave neighs/atom = 298.68
Neighbor list builds = 1000
Dangerous builds not checked
Setting up Verlet run ...
  Unit style    : real
  Current step  : 7000
  Time step     : 1
Per MPI rank memory allocation (min/avg/max) = 4.577 | 4.579 | 4.58 Mbytes
Step Temp E_pair E_mol TotEng Press Volume Lx Ly Lz S/CPU 
    7000     293.7485   -10508.311            0   -9633.5777   -9645.5077    790.74943    9.2472577    9.2472577    9.2472577            0 
    7100    301.33866   -10531.902            0   -9634.5673   -2029.3835    788.56214    9.2387236    9.2387236    9.2387236     55.56942 
    7200    297.41616   -10519.685            0   -9634.0305   -7132.9906    785.66946     9.227413     9.227413     9.227413    56.753043 
    7300    290.03054   -10494.904            0   -9631.2425    1019.3088    782.38477    9.2145358    9.2145358    9.2145358    49.954185 
    7400    306.46182   -10541.426            0   -9628.8353    10368.576    779.15048     9.201821     9.201821     9.201821    61.087852 
    7500    292.67824   -10493.607            0   -9622.0614    14124.712     776.5154    9.1914358    9.1914358    9.1914358    52.498706 
    7600    292.14906   -10486.705            0   -9616.7351    7750.7272    774.59814    9.1838648    9.1838648    9.1838648    54.825377 
    7700    300.53936    -10503.62            0   -9608.6651    10891.558    773.66528    9.1801766    9.1801766    9.1801766    51.455568 
    7800    300.33012   -10493.338            0   -9599.0061    11736.903    773.63429     9.180054     9.180054     9.180054    56.530368 
    7900    315.03268   -10526.536            0   -9588.4229    26371.508    774.27152    9.1825738    9.1825738    9.1825738    63.968044 
    8000    299.43636   -10468.251            0   -9576.5811    14152.565    775.83217    9.1887392    9.1887392    9.1887392    54.281672 
Loop time of 18.0524 on 16 procs for 1000 steps with 1000 atoms

Performance: 4.786 ns/day, 5.015 hours/ns, 55.394 timesteps/s
94.9% CPU use with 16 MPI tasks x no OpenMP threads

MPI task timing breakdown:
Section |  min time  |  avg time  |  max time  |%varavg| %total
---------------------------------------------------------------
Pair    | 2.4126     | 2.5527     | 2.6712     |   4.5 | 14.14
Neigh   | 0.8034     | 0.83519    | 0.8626     |   2.0 |  4.63
Comm    | 0.79416    | 0.94236    | 1.1093     |   8.9 |  5.22
Output  | 9.2947     | 9.5687     | 13.628     |  33.9 | 53.01
Modify  | 0.079893   | 4.14       | 4.4174     |  51.5 | 22.93
Other   |            | 0.01339    |            |       |  0.07

Nlocal:    62.5 ave 67 max 59 min
Histogram: 4 0 2 2 0 2 1 3 1 1
Nghost:    1872.44 ave 1894 max 1845 min
Histogram: 1 0 1 0 4 3 4 1 1 1
Neighs:    0 ave 0 max 0 min
Histogram: 16 0 0 0 0 0 0 0 0 0
FullNghs:  19025.9 ave 20554 max 17812 min
Histogram: 4 0 1 3 2 0 1 3 1 1

Total # of neighbors = 304414
Ave neighs/atom = 304.414
Neighbor list builds = 1000
Dangerous builds not checked
Setting up Verlet run ...
  Unit style    : real
  Current step  : 8000
  Time step     : 1
Per MPI rank memory allocation (min/avg/max) = 4.577 | 4.579 | 4.58 Mbytes
Step Temp E_pair E_mol TotEng Press Volume Lx Ly Lz S/CPU 
    8000    299.43636   -10468.251            0   -9576.5811    14152.565    775.83217    9.1887392    9.1887392    9.1887392            0 
    8100    300.94029   -10460.428            0   -9564.2792   -2521.1054    777.68449    9.1960462    9.1960462    9.1960462    65.368643 
    8200    314.61954   -10490.607            0   -9553.7237   -2540.2821    779.24147    9.2021792    9.2021792    9.2021792    46.816174 
    8300    311.17257   -10474.184            0   -9547.5655    14079.666    780.84413    9.2084835    9.2084835    9.2084835    49.445934 
    8400    306.13325   -10455.961            0   -9544.3487    9770.5331    783.12708    9.2174491    9.2174491    9.2174491    61.466673 
    8500    308.10282   -10461.908            0   -9544.4301    3116.4016    785.99625    9.2286921    9.2286921    9.2286921    53.682396 
    8600    314.24103   -10481.937            0   -9546.1808   -10397.395    788.67931    9.2391811    9.2391811    9.2391811    69.342693 
    8700    301.60407   -10445.164            0   -9547.0389   -13862.498    790.25213    9.2453188    9.2453188    9.2453188    47.700519 
    8800    316.06766   -10491.703            0   -9550.5074   -4992.3782    790.70994    9.2471038    9.2471038    9.2471038     68.75908 
    8900    310.30057   -10476.888            0   -9552.8656   -10786.991    790.49719    9.2462744    9.2462744    9.2462744    49.126439 
    9000    302.20934   -10455.335            0   -9555.4076    481.68748    789.62791    9.2428839    9.2428839    9.2428839    49.491922 
Loop time of 18.227 on 16 procs for 1000 steps with 1000 atoms

Performance: 4.740 ns/day, 5.063 hours/ns, 54.864 timesteps/s
94.9% CPU use with 16 MPI tasks x no OpenMP threads

MPI task timing breakdown:
Section |  min time  |  avg time  |  max time  |%varavg| %total
---------------------------------------------------------------
Pair    | 2.4063     | 2.5505     | 2.6324     |   4.2 | 13.99
Neigh   | 0.78867    | 0.83785    | 0.86363    |   1.9 |  4.60
Comm    | 0.78282    | 0.88964    | 1.0349     |   8.3 |  4.88
Output  | 9.7204     | 9.9816     | 13.849     |  31.6 | 54.76
Modify  | 0.091954   | 3.9588     | 4.224      |  50.2 | 21.72
Other   |            | 0.008529   |            |       |  0.05

Nlocal:    62.5 ave 69 max 58 min
Histogram: 1 3 1 4 2 3 0 1 0 1
Nghost:    1843.12 ave 1859 max 1819 min
Histogram: 1 0 3 1 3 0 0 1 1 6
Neighs:    0 ave 0 max 0 min
Histogram: 16 0 0 0 0 0 0 0 0 0
FullNghs:  18671.5 ave 20754 max 17181 min
Histogram: 1 2 2 4 2 3 0 1 0 1

Total # of neighbors = 298744
Ave neighs/atom = 298.744
Neighbor list builds = 1000
Dangerous builds not checked
Setting up Verlet run ...
  Unit style    : real
  Current step  : 9000
  Time step     : 1
Per MPI rank memory allocation (min/avg/max) = 4.577 | 4.579 | 4.58 Mbytes
Step Temp E_pair E_mol TotEng Press Volume Lx Ly Lz S/CPU 
    9000    302.20934   -10455.335            0   -9555.4076    481.68748    789.62791    9.2428839    9.2428839    9.2428839            0 
    9100    312.94512    -10492.01            0    -9560.113    -2663.255    788.38588    9.2380352    9.2380352    9.2380352    61.530507 
    9200     305.4077   -10473.885            0    -9564.433   -8023.3836    787.15448     9.233223     9.233223     9.233223    45.021828 
    9300    310.28782   -10495.177            0   -9571.1924   -6750.6924     785.4383    9.2265079    9.2265079    9.2265079    67.655809 
    9400    311.10106   -10502.916            0   -9576.5097   -1158.0164    783.39376    9.2184953    9.2184953    9.2184953    53.275401 
    9500    297.73588   -10468.759            0   -9582.1521    6413.9265    781.38088     9.210593     9.210593     9.210593    70.049127 
    9600    305.26097   -10496.288            0   -9587.2729   -2244.1094    779.82957    9.2044936    9.2044936    9.2044936    51.493191 
    9700    303.72443   -10497.094            0   -9592.6546    4113.7076    778.78545    9.2003838    9.2003838    9.2003838    60.926708 
    9800    300.63918   -10492.421            0   -9597.1691   -1309.9047    778.25331    9.1982878    9.1982878    9.1982878    63.030947 
    9900    298.27498   -10489.491            0   -9601.2788   -3199.3452    778.00265    9.1973001    9.1973001    9.1973001     51.83828 
   10000    292.68605   -10477.541            0   -9605.9718    10334.679    777.71411     9.196163     9.196163     9.196163    66.238712 
Loop time of 17.2377 on 16 procs for 1000 steps with 1000 atoms

Performance: 5.012 ns/day, 4.788 hours/ns, 58.012 timesteps/s
95.0% CPU use with 16 MPI tasks x no OpenMP threads

MPI task timing breakdown:
Section |  min time  |  avg time  |  max time  |%varavg| %total
---------------------------------------------------------------
Pair    | 2.4567     | 2.5929     | 2.6909     |   3.6 | 15.04
Neigh   | 0.81457    | 0.85157    | 0.88423    |   2.1 |  4.94
Comm    | 0.74704    | 0.86621    | 1.0409     |   8.0 |  5.03
Output  | 8.5747     | 8.8427     | 12.812     |  34.5 | 51.30
Modify  | 0.10746    | 4.0757     | 4.3511     |  50.8 | 23.64
Other   |            | 0.008594   |            |       |  0.05

Nlocal:    62.5 ave 66 max 58 min
Histogram: 1 2 1 1 0 0 4 5 1 1
Nghost:    1864.69 ave 1876 max 1855 min
Histogram: 2 2 1 3 1 2 0 2 1 2
Neighs:    0 ave 0 max 0 min
Histogram: 16 0 0 0 0 0 0 0 0 0
FullNghs:  18973.5 ave 20067 max 17610 min
Histogram: 2 1 1 1 0 0 6 3 1 1

Total # of neighbors = 303576
Ave neighs/atom = 303.576
Neighbor list builds = 1000
Dangerous builds not checked
Setting up Verlet run ...
  Unit style    : real
  Current step  : 10000
  Time step     : 1
Per MPI rank memory allocation (min/avg/max) = 4.577 | 4.579 | 4.58 Mbytes
Step Temp E_pair E_mol TotEng Press Volume Lx Ly Lz S/CPU 
   10000    292.68605   -10477.541            0   -9605.9718    10334.679    777.71411     9.196163     9.196163     9.196163            0 
   10100    310.30955   -10534.821            0   -9610.7717    17159.017    777.63013     9.195832     9.195832     9.195832    52.862753 
   10200    302.52891   -10514.786            0   -9613.9062    3267.7352    778.34965    9.1986673    9.1986673    9.1986673    66.701092 
   10300    304.41268   -10525.028            0   -9618.5386    7440.4521    779.71642    9.2040484    9.2040484    9.2040484    58.310764 
   10400    301.56738   -10520.823            0   -9622.8073    -3661.197    781.31826     9.210347     9.210347     9.210347    47.908517 
   10500    301.20941   -10525.447            0   -9628.4972   -7009.7864    782.96618    9.2168178    9.2168178    9.2168178    71.659082 
   10600    301.80365   -10532.551            0   -9633.8313   -2042.1917    784.19465    9.2216357    9.2216357    9.2216357    53.821213 
   10700    286.14308   -10489.549            0   -9637.4636   -14446.384    784.76985    9.2238898    9.2238898    9.2238898    59.961171 
   10800     298.9307   -10532.675            0   -9642.5103   -15434.546    784.43448    9.2225756    9.2225756    9.2225756    58.568298 
   10900    293.69602   -10518.066            0   -9643.4895   -7220.7701    783.45205    9.2187239    9.2187239    9.2187239    53.618632 
   11000    298.98602   -10536.231            0   -9645.9013   -6376.2547    782.15646    9.2136394    9.2136394    9.2136394    67.842938 
Loop time of 17.1609 on 16 procs for 1000 steps with 1000 atoms

Performance: 5.035 ns/day, 4.767 hours/ns, 58.272 timesteps/s
95.0% CPU use with 16 MPI tasks x no OpenMP threads

MPI task timing breakdown:
Section |  min time  |  avg time  |  max time  |%varavg| %total
---------------------------------------------------------------
Pair    | 2.4501     | 2.5811     | 2.6932     |   4.3 | 15.04
Neigh   | 0.8231     | 0.84423    | 0.8782     |   1.6 |  4.92
Comm    | 0.75005    | 0.88066    | 1.0323     |   8.6 |  5.13
Output  | 8.4758     | 8.7466     | 12.759     |  35.0 | 50.97
Modify  | 0.090133   | 4.0997     | 4.3707     |  51.1 | 23.89
Other   |            | 0.008566   |            |       |  0.05

Nlocal:    62.5 ave 69 max 57 min
Histogram: 2 1 3 1 1 4 0 1 2 1
Nghost:    1858.88 ave 1887 max 1817 min
Histogram: 1 1 2 0 3 0 1 3 1 4
Neighs:    0 ave 0 max 0 min
Histogram: 16 0 0 0 0 0 0 0 0 0
FullNghs:  18872.1 ave 20939 max 16938 min
Histogram: 2 0 3 2 1 3 1 0 3 1

Total # of neighbors = 301954
Ave neighs/atom = 301.954
Neighbor list builds = 1000
Dangerous builds not checked
Setting up Verlet run ...
  Unit style    : real
  Current step  : 11000
  Time step     : 1
Per MPI rank memory allocation (min/avg/max) = 4.577 | 4.579 | 4.58 Mbytes
Step Temp E_pair E_mol TotEng Press Volume Lx Ly Lz S/CPU 
   11000    298.98602   -10536.231            0   -9645.9013   -6376.2547    782.15646    9.2136394    9.2136394    9.2136394            0 
   11100    299.44022   -10537.859            0   -9646.1769   -7616.2522    780.70244    9.2079265    9.2079265    9.2079265    50.114527 
   11200    286.53988    -10496.51            0   -9643.2431    3977.6249    779.00617    9.2012529    9.2012529    9.2012529    65.685829 
   11300    289.44523   -10500.163            0    -9638.245    16726.142    777.32888    9.1946443    9.1946443    9.1946443    52.094898 
   11400    298.38497    -10519.29            0   -9630.7505    15927.833    776.28157    9.1905131    9.1905131    9.1905131    48.104215 
   11500    305.35049    -10529.24            0    -9619.958    26582.633     776.1316    9.1899212    9.1899212    9.1899212    67.495485 
   11600    312.94783   -10540.655            0   -9608.7502    31081.519    777.59042    9.1956754    9.1956754    9.1956754    58.554486 
   11700    302.82598   -10497.896            0   -9596.1321    5600.5895     780.7873    9.2082601    9.2082601    9.2082601    65.630224 
   11800    300.92488   -10478.302            0   -9582.1991    8387.7587    784.55213    9.2230367    9.2230367    9.2230367    48.870189 
   11900    299.05148   -10462.288            0   -9571.7636   -420.51627    788.46414    9.2383409    9.2383409    9.2383409     68.14026 
   12000    292.68933   -10435.521            0   -9563.9424    2684.9094    792.09942    9.2525172    9.2525172    9.2525172    42.482128 
Loop time of 18.0971 on 16 procs for 1000 steps with 1000 atoms

Performance: 4.774 ns/day, 5.027 hours/ns, 55.258 timesteps/s
94.9% CPU use with 16 MPI tasks x no OpenMP threads

MPI task timing breakdown:
Section |  min time  |  avg time  |  max time  |%varavg| %total
---------------------------------------------------------------
Pair    | 2.4183     | 2.5308     | 2.706      |   4.8 | 13.98
Neigh   | 0.80672    | 0.83142    | 0.86567    |   1.9 |  4.59
Comm    | 0.73376    | 0.94272    | 1.0806     |   9.3 |  5.21
Output  | 8.9379     | 9.2397     | 13.713     |  38.0 | 51.06
Modify  | 0.072326   | 4.5439     | 4.8456     |  54.2 | 25.11
Other   |            | 0.008463   |            |       |  0.05

Nlocal:    62.5 ave 67 max 57 min
Histogram: 1 0 0 2 4 0 4 1 2 2
Nghost:    1858.81 ave 1876 max 1845 min
Histogram: 1 1 5 2 1 1 3 0 0 2
Neighs:    0 ave 0 max 0 min
Histogram: 16 0 0 0 0 0 0 0 0 0
FullNghs:  18643.4 ave 20086 max 16836 min
Histogram: 1 0 2 1 3 3 2 1 2 1

Total # of neighbors = 298294
Ave neighs/atom = 298.294
Neighbor list builds = 1000
Dangerous builds not checked
Setting up Verlet run ...
  Unit style    : real
  Current step  : 12000
  Time step     : 1
Per MPI rank memory allocation (min/avg/max) = 4.577 | 4.579 | 4.58 Mbytes
Step Temp E_pair E_mol TotEng Press Volume Lx Ly Lz S/CPU 
   12000    292.68933   -10435.521            0   -9563.9424    2684.9094    792.09942    9.2525172    9.2525172    9.2525172            0 
   12100    311.98402   -10487.249            0   -9558.2136   -8153.8887    795.09973    9.2641846    9.2641846    9.2641846    58.098523 
   12200    313.10446   -10485.485            0    -9553.113   -15576.233    796.88536    9.2711146    9.2711146    9.2711146    59.858188 
   12300    300.07108   -10444.119            0   -9550.5587   -16307.764    797.37882    9.2730279    9.2730279    9.2730279    45.415086 
   12400    318.16296   -10498.733            0   -9551.2977   -32850.347    796.77684    9.2706937    9.2706937    9.2706937    68.642916 
   12500    312.80428   -10482.856            0   -9551.3783   -13993.943    795.19734    9.2645637    9.2645637    9.2645637    53.489634 
   12600    306.30674   -10465.253            0   -9553.1243   -12211.237    792.47568    9.2539819    9.2539819    9.2539819    61.066369 
   12700    309.26679   -10478.923            0   -9557.9793   -1161.6403    788.85758    9.2398772    9.2398772    9.2398772    53.005955 
   12800    308.56312   -10481.773            0   -9562.9249    4664.8574    784.98868     9.224747     9.224747     9.224747    55.788872 
   12900    306.94557   -10484.309            0   -9570.2779    19916.673    781.76899    9.2121177    9.2121177    9.2121177    63.751017 
   13000    304.12983   -10483.784            0   -9578.1372   -1994.9262    779.63225    9.2037172    9.2037172    9.2037172    50.881894 
Loop time of 17.7706 on 16 procs for 1000 steps with 1000 atoms

Performance: 4.862 ns/day, 4.936 hours/ns, 56.273 timesteps/s
94.9% CPU use with 16 MPI tasks x no OpenMP threads

MPI task timing breakdown:
Section |  min time  |  avg time  |  max time  |%varavg| %total
---------------------------------------------------------------
Pair    | 2.346      | 2.4632     | 2.5927     |   4.5 | 13.86
Neigh   | 0.79415    | 0.82786    | 0.86289    |   2.0 |  4.66
Comm    | 0.74239    | 0.90111    | 1.0328     |   9.1 |  5.07
Output  | 8.7393     | 9.0397     | 13.496     |  38.3 | 50.87
Modify  | 0.073526   | 4.5303     | 4.8308     |  54.1 | 25.49
Other   |            | 0.008417   |            |       |  0.05

Nlocal:    62.5 ave 69 max 58 min
Histogram: 6 0 1 1 0 3 1 2 1 1
Nghost:    1864.25 ave 1873 max 1850 min
Histogram: 1 0 1 2 0 1 4 3 2 2
Neighs:    0 ave 0 max 0 min
Histogram: 16 0 0 0 0 0 0 0 0 0
FullNghs:  18928.2 ave 20859 max 17382 min
Histogram: 3 3 0 2 0 3 0 2 2 1

Total # of neighbors = 302852
Ave neighs/atom = 302.852
Neighbor list builds = 1000
Dangerous builds not checked
Setting up Verlet run ...
  Unit style    : real
  Current step  : 13000
  Time step     : 1
Per MPI rank memory allocation (min/avg/max) = 4.577 | 4.579 | 4.58 Mbytes
Step Temp E_pair E_mol TotEng Press Volume Lx Ly Lz S/CPU 
   13000    304.12983   -10483.784            0   -9578.1372   -1994.9262    779.63225    9.2037172    9.2037172    9.2037172            0 
   13100    300.86192   -10483.689            0    -9587.774    8620.7668    778.26697    9.1983416    9.1983416    9.1983416    48.572655 
   13200    302.66124   -10499.851            0   -9598.5776    6954.1062     777.7936    9.1964763    9.1964763    9.1964763    77.377263 
   13300     300.4689    -10504.12            0    -9609.375    6857.2197    777.97258    9.1971817    9.1971817    9.1971817    54.174369 
   13400    305.18851   -10527.542            0   -9618.7424    5879.9258    778.79265    9.2004121    9.2004121    9.2004121    66.453722 
   13500    300.54622    -10521.44            0   -9626.4651    7155.8516    780.37317    9.2066318    9.2066318    9.2066318     52.90968 
   13600    297.84327   -10516.948            0   -9630.0218    8982.3601    782.70961    9.2158109    9.2158109    9.2158109    50.444133 
   13700    295.23748   -10511.339            0   -9632.1718    6066.3503     785.1455    9.2253613    9.2253613    9.2253613    52.407035 
   13800    292.68355   -10503.804            0   -9632.2427   -1453.3323    787.39149    9.2341496    9.2341496    9.2341496    47.918069 
   13900    285.70809   -10481.035            0   -9630.2449   -5056.8044    789.25038    9.2414106    9.2414106    9.2414106    54.186856 
   14000    296.45239   -10513.835            0   -9631.0504   -16893.416    790.47935    9.2462048    9.2462048    9.2462048    51.881072 
Loop time of 18.3423 on 16 procs for 1000 steps with 1000 atoms

Performance: 4.710 ns/day, 5.095 hours/ns, 54.519 timesteps/s
94.9% CPU use with 16 MPI tasks x no OpenMP threads

MPI task timing breakdown:
Section |  min time  |  avg time  |  max time  |%varavg| %total
---------------------------------------------------------------
Pair    | 2.3632     | 2.5264     | 2.663      |   4.5 | 13.77
Neigh   | 0.79522    | 0.83132    | 0.85574    |   1.6 |  4.53
Comm    | 0.74739    | 0.90858    | 1.0856     |   8.5 |  4.95
Output  | 9.1526     | 9.459      | 14.003     |  38.1 | 51.57
Modify  | 0.063909   | 4.6085     | 4.9151     |  54.7 | 25.12
Other   |            | 0.008474   |            |       |  0.05

Nlocal:    62.5 ave 69 max 55 min
Histogram: 2 0 1 1 3 2 2 2 1 2
Nghost:    1838 ave 1865 max 1811 min
Histogram: 2 1 1 2 2 2 2 1 0 3
Neighs:    0 ave 0 max 0 min
Histogram: 16 0 0 0 0 0 0 0 0 0
FullNghs:  18686.9 ave 20666 max 16473 min
Histogram: 2 0 1 2 2 3 1 2 1 2

Total # of neighbors = 298990
Ave neighs/atom = 298.99
Neighbor list builds = 1000
Dangerous builds not checked
Setting up Verlet run ...
  Unit style    : real
  Current step  : 14000
  Time step     : 1
Per MPI rank memory allocation (min/avg/max) = 4.577 | 4.579 | 4.58 Mbytes
Step Temp E_pair E_mol TotEng Press Volume Lx Ly Lz S/CPU 
   14000    296.45239   -10513.835            0   -9631.0504   -16893.416    790.47935    9.2462048    9.2462048    9.2462048            0 
   14100    306.93437   -10543.688            0   -9629.6899   -11266.167    790.66805    9.2469405    9.2469405    9.2469405    53.359692 
   14200    298.74384   -10515.529            0   -9625.9211   -4890.8642    789.87595    9.2438516    9.2438516    9.2438516    66.035241 
   14300    301.99742    -10523.23            0   -9623.9334   -5594.7254    788.47281    9.2383747    9.2383747    9.2383747     54.90928 
   14400    300.17453   -10513.674            0   -9619.8058    -2484.528    787.27081    9.2336778    9.2336778    9.2336778    64.882275 
   14500    299.12902    -10504.97            0   -9614.2152   -4942.3699     786.5707    9.2309399    9.2309399    9.2309399    44.227894 
   14600    305.88573   -10520.532            0   -9609.6567   -4780.4872    785.99072    9.2286705    9.2286705    9.2286705    46.696285 
   14700    303.72114   -10510.819            0   -9606.3896    8124.1611    785.33331    9.2260968    9.2260968    9.2260968    67.905166 
   14800    297.33246   -10487.555            0   -9602.1499   -807.96794    784.64578    9.2234036    9.2234036    9.2234036    54.962376 
   14900    310.29294   -10523.805            0    -9599.806   -5121.9621    784.27013    9.2219315    9.2219315    9.2219315    47.112044 
   15000    311.75103    -10526.42            0   -9598.0787   -7342.0751    784.11176    9.2213107    9.2213107    9.2213107     57.81145 
Loop time of 18.2978 on 16 procs for 1000 steps with 1000 atoms

Performance: 4.722 ns/day, 5.083 hours/ns, 54.651 timesteps/s
94.8% CPU use with 16 MPI tasks x no OpenMP threads

MPI task timing breakdown:
Section |  min time  |  avg time  |  max time  |%varavg| %total
---------------------------------------------------------------
Pair    | 2.4592     | 2.5437     | 2.642      |   3.0 | 13.90
Neigh   | 0.80741    | 0.84252    | 0.87303    |   1.6 |  4.60
Comm    | 0.73398    | 0.84104    | 0.94393    |   6.4 |  4.60
Output  | 9.419      | 9.7063     | 13.96      |  35.2 | 53.05
Modify  | 0.099362   | 4.3558     | 4.6459     |  52.7 | 23.80
Other   |            | 0.008538   |            |       |  0.05

Nlocal:    62.5 ave 69 max 55 min
Histogram: 2 0 1 1 3 4 0 1 1 3
Nghost:    1865 ave 1883 max 1849 min
Histogram: 3 1 4 0 1 0 1 4 0 2
Neighs:    0 ave 0 max 0 min
Histogram: 16 0 0 0 0 0 0 0 0 0
FullNghs:  18835.6 ave 20775 max 16441 min
Histogram: 2 0 1 1 3 2 2 1 1 3

Total # of neighbors = 301370
Ave neighs/atom = 301.37
Neighbor list builds = 1000
Dangerous builds not checked
Setting up Verlet run ...
  Unit style    : real
  Current step  : 15000
  Time step     : 1
Per MPI rank memory allocation (min/avg/max) = 4.577 | 4.579 | 4.58 Mbytes
Step Temp E_pair E_mol TotEng Press Volume Lx Ly Lz S/CPU 
   15000    311.75103    -10526.42            0   -9598.0787   -7342.0751    784.11176    9.2213107    9.2213107    9.2213107            0 
   15100    301.09295   -10494.636            0   -9598.0327   -2566.4563     784.1176    9.2213336    9.2213336    9.2213336    45.258752 
   15200    306.65054   -10512.345            0   -9599.1916    2079.6319    784.30031    9.2220498    9.2220498    9.2220498    35.956019 
   15300    303.76943   -10504.498            0    -9599.924    747.23237    784.62794    9.2233337    9.2233337    9.2233337    64.832682 
   15400     299.9569   -10494.557            0   -9601.3364   -10449.891    784.79025    9.2239697    9.2239697    9.2239697    54.856695 
   15500    300.75599   -10499.177            0   -9603.5769    2330.5232    784.65274    9.2234309    9.2234309    9.2234309    56.086246 
   15600    299.37813   -10495.919            0   -9604.4221    -508.3236    784.75947    9.2238491    9.2238491    9.2238491    60.879727 
   15700    300.81962   -10501.514            0   -9605.7249    15349.106    784.99001    9.2247522    9.2247522    9.2247522     50.11575 
   15800    308.94207    -10528.97            0   -9608.9934   -234.69411    785.72779    9.2276413    9.2276413    9.2276413    67.653084 
   15900    292.17355   -10478.089            0   -9608.0463   -759.74618    786.52075    9.2307444    9.2307444    9.2307444    47.638812 
   16000    286.54325   -10461.952            0   -9608.6754   -15733.054    787.15775    9.2332358    9.2332358    9.2332358    46.720157 
Loop time of 19.4947 on 16 procs for 1000 steps with 1000 atoms

Performance: 4.432 ns/day, 5.415 hours/ns, 51.296 timesteps/s
94.8% CPU use with 16 MPI tasks x no OpenMP threads

MPI task timing breakdown:
Section |  min time  |  avg time  |  max time  |%varavg| %total
---------------------------------------------------------------
Pair    | 2.3873     | 2.512      | 2.6044     |   4.3 | 12.89
Neigh   | 0.79181    | 0.83219    | 0.86065    |   1.8 |  4.27
Comm    | 0.77067    | 0.89085    | 1.0559     |   8.8 |  4.57
Output  | 10.319     | 10.626     | 15.183     |  36.1 | 54.51
Modify  | 0.067695   | 4.6252     | 4.9326     |  54.7 | 23.73
Other   |            | 0.008511   |            |       |  0.04

Nlocal:    62.5 ave 67 max 60 min
Histogram: 3 3 4 0 2 0 0 2 1 1
Nghost:    1842 ave 1854 max 1823 min
Histogram: 2 0 1 1 2 0 3 2 0 5
Neighs:    0 ave 0 max 0 min
Histogram: 16 0 0 0 0 0 0 0 0 0
FullNghs:  18736.6 ave 20191 max 17950 min
Histogram: 4 2 2 2 2 0 1 2 0 1

Total # of neighbors = 299786
Ave neighs/atom = 299.786
Neighbor list builds = 1000
Dangerous builds not checked
Setting up Verlet run ...
  Unit style    : real
  Current step  : 16000
  Time step     : 1
Per MPI rank memory allocation (min/avg/max) = 4.577 | 4.579 | 4.58 Mbytes
Step Temp E_pair E_mol TotEng Press Volume Lx Ly Lz S/CPU 
   16000    286.54325   -10461.952            0   -9608.6754   -15733.054    787.15775    9.2332358    9.2332358    9.2332358            0 
   16100    291.76696   -10478.372            0   -9609.5402   -19784.745     787.3244    9.2338873    9.2338873    9.2338873    49.134846 
   16200     297.9075   -10496.372            0   -9609.2544   -7992.9333    786.93674    9.2323715    9.2323715    9.2323715    54.919157 
   16300    298.81023   -10498.385            0   -9608.5788   -3570.1283    786.11938     9.229174     9.229174     9.229174    61.801905 
   16400    289.20242   -10466.968            0   -9605.7729   -4745.4413    784.85938    9.2242405    9.2242405    9.2242405    53.504524 
   16500    302.70916   -10506.839            0   -9605.4226    3322.0238    783.67586    9.2196016    9.2196016    9.2196016    62.431993 
   16600    291.04623    -10469.41            0   -9602.7244   -1827.0886      782.915    9.2166169    9.2166169    9.2166169     51.28799 
   16700    305.70671   -10512.359            0   -9602.0162    2867.0491    782.49081    9.2149521    9.2149521    9.2149521    70.491005 
   16800    292.83082   -10472.398            0   -9600.3977    17151.753    782.49174    9.2149558    9.2149558    9.2149558    48.293218 
   16900    296.62397   -10482.256            0   -9598.9601    5856.5696    783.10444    9.2173603    9.2173603    9.2173603    56.705236 
   17000    291.67666   -10464.142            0   -9595.5792   -3489.1246     783.7861    9.2200339    9.2200339    9.2200339    65.032987 
Loop time of 17.6852 on 16 procs for 1000 steps with 1000 atoms

Performance: 4.885 ns/day, 4.913 hours/ns, 56.545 timesteps/s
94.9% CPU use with 16 MPI tasks x no OpenMP threads

MPI task timing breakdown:
Section |  min time  |  avg time  |  max time  |%varavg| %total
---------------------------------------------------------------
Pair    | 2.3415     | 2.5125     | 2.5984     |   4.4 | 14.21
Neigh   | 0.7849     | 0.83203    | 0.8556     |   1.9 |  4.70
Comm    | 0.82079    | 0.91668    | 1.117      |   8.7 |  5.18
Output  | 8.9142     | 9.193      | 13.323     |  35.2 | 51.98
Modify  | 0.099901   | 4.2225     | 4.5008     |  51.8 | 23.88
Other   |            | 0.008456   |            |       |  0.05

Nlocal:    62.5 ave 67 max 58 min
Histogram: 1 4 1 0 1 2 2 1 3 1
Nghost:    1857.38 ave 1874 max 1842 min
Histogram: 2 2 1 2 1 3 0 1 2 2
Neighs:    0 ave 0 max 0 min
Histogram: 16 0 0 0 0 0 0 0 0 0
FullNghs:  18820.2 ave 20161 max 17397 min
Histogram: 1 4 1 0 1 0 3 1 4 1

Total # of neighbors = 301124
Ave neighs/atom = 301.124
Neighbor list builds = 1000
Dangerous builds not checked
Setting up Verlet run ...
  Unit style    : real
  Current step  : 17000
  Time step     : 1
Per MPI rank memory allocation (min/avg/max) = 4.577 | 4.579 | 4.58 Mbytes
Step Temp E_pair E_mol TotEng Press Volume Lx Ly Lz S/CPU 
   17000    291.67666   -10464.142            0   -9595.5792   -3489.1246     783.7861    9.2200339    9.2200339    9.2200339            0 
   17100    301.69562   -10490.766            0   -9592.3682   -2045.6972    784.12647    9.2213684    9.2213684    9.2213684    50.066146 
   17200    304.94781   -10496.153            0   -9588.0707    5355.7628    784.41321    9.2224923    9.2224923    9.2224923     61.63413 
   17300     300.5768   -10478.115            0    -9583.049    15148.029    784.50116    9.2228369    9.2228369    9.2228369    60.336979 
   17400    304.83441   -10485.609            0   -9577.8643    -5684.752    784.65198    9.2234279    9.2234279    9.2234279    55.160056 
   17500    295.38215   -10449.371            0   -9569.7734     1155.626    784.63373    9.2233564    9.2233564    9.2233564    57.321095 
   17600    306.63671   -10477.965            0   -9564.8536   -10779.497    784.59074     9.223188     9.223188     9.223188    48.239966 
   17700    307.58506   -10476.447            0   -9560.5115   -4477.5126    784.01074    9.2209147    9.2209147    9.2209147    45.623073 
   17800    310.57848   -10482.829            0   -9557.9791   -12687.901    783.23455    9.2178707    9.2178707    9.2178707    57.445581 
   17900    301.40768   -10453.316            0   -9555.7755   -6116.6549    781.90201    9.2126402    9.2126402    9.2126402     46.00012 
   18000    300.91979   -10451.052            0   -9554.9644   -6019.1478    779.95001    9.2049674    9.2049674    9.2049674    58.572235 
Loop time of 18.7215 on 16 procs for 1000 steps with 1000 atoms

Performance: 4.615 ns/day, 5.200 hours/ns, 53.415 timesteps/s
94.9% CPU use with 16 MPI tasks x no OpenMP threads

MPI task timing breakdown:
Section |  min time  |  avg time  |  max time  |%varavg| %total
---------------------------------------------------------------
Pair    | 2.5081     | 2.5901     | 2.7344     |   4.2 | 13.83
Neigh   | 0.82242    | 0.85026    | 0.88871    |   1.9 |  4.54
Comm    | 0.66238    | 0.84526    | 0.94904    |   9.0 |  4.51
Output  | 9.86       | 10.141     | 14.309     |  33.8 | 54.17
Modify  | 0.118      | 4.286      | 4.5676     |  52.0 | 22.89
Other   |            | 0.00856    |            |       |  0.05

Nlocal:    62.5 ave 66 max 57 min
Histogram: 1 0 1 2 2 0 5 0 3 2
Nghost:    1872.31 ave 1902 max 1851 min
Histogram: 2 2 2 2 2 2 2 1 0 1
Neighs:    0 ave 0 max 0 min
Histogram: 16 0 0 0 0 0 0 0 0 0
FullNghs:  18949.6 ave 20363 max 17146 min
Histogram: 1 0 1 4 0 3 3 0 2 2

Total # of neighbors = 303194
Ave neighs/atom = 303.194
Neighbor list builds = 1000
Dangerous builds not checked
Setting up Verlet run ...
  Unit style    : real
  Current step  : 18000
  Time step     : 1
Per MPI rank memory allocation (min/avg/max) = 4.577 | 4.579 | 4.58 Mbytes
Step Temp E_pair E_mol TotEng Press Volume Lx Ly Lz S/CPU 
   18000    300.91979   -10451.052            0   -9554.9644   -6019.1478    779.95001    9.2049674    9.2049674    9.2049674            0 
   18100    300.77208   -10452.321            0    -9556.673     3043.955    777.91078    9.1969381    9.1969381    9.1969381    44.752543 
   18200    310.34629   -10484.788            0   -9560.6298    9992.8742    776.14491    9.1899738    9.1899738    9.1899738     45.67501 
   18300    312.37078   -10497.973            0   -9567.7863    18763.916    775.24688     9.186428     9.186428     9.186428    52.441744 
   18400    303.28021   -10479.457            0   -9576.3407   -6156.4172    775.55807     9.187657     9.187657     9.187657    55.797337 
   18500    287.35718   -10444.589            0   -9588.8887    8742.7206    776.34444    9.1907612    9.1907612    9.1907612    51.642355 
   18600    287.05932   -10454.752            0   -9599.9382    1981.0552    777.62055    9.1957942    9.1957942    9.1957942     41.90185 
   18700    292.11386   -10480.438            0   -9610.5728   -11767.372    779.05402    9.2014413    9.2014413    9.2014413    56.074185 
   18800    301.00506   -10515.334            0   -9618.9923    791.73405     780.5151      9.20719      9.20719      9.20719    52.339745 
   18900    289.07658   -10486.409            0    -9625.588     8598.582    782.02364    9.2131179    9.2131179    9.2131179    56.893292 
   19000    288.87465   -10490.583            0   -9630.3636    -3440.936    783.57071    9.2191893    9.2191893    9.2191893    71.335839 
Loop time of 19.2994 on 16 procs for 1000 steps with 1000 atoms

Performance: 4.477 ns/day, 5.361 hours/ns, 51.815 timesteps/s
94.8% CPU use with 16 MPI tasks x no OpenMP threads

MPI task timing breakdown:
Section |  min time  |  avg time  |  max time  |%varavg| %total
---------------------------------------------------------------
Pair    | 2.4623     | 2.5584     | 2.6992     |   3.3 | 13.26
Neigh   | 0.81625    | 0.83608    | 0.87097    |   1.5 |  4.33
Comm    | 0.74086    | 0.91687    | 1.0245     |   6.6 |  4.75
Output  | 9.9437     | 10.255     | 14.877     |  37.3 | 53.14
Modify  | 0.10131    | 4.7243     | 5.0359     |  54.9 | 24.48
Other   |            | 0.008508   |            |       |  0.04

Nlocal:    62.5 ave 67 max 57 min
Histogram: 1 0 1 1 2 4 2 2 0 3
Nghost:    1867.75 ave 1901 max 1840 min
Histogram: 2 1 1 2 3 3 1 1 1 1
Neighs:    0 ave 0 max 0 min
Histogram: 16 0 0 0 0 0 0 0 0 0
FullNghs:  18833.1 ave 20435 max 17130 min
Histogram: 2 0 1 1 5 2 1 1 1 2

Total # of neighbors = 301330
Ave neighs/atom = 301.33
Neighbor list builds = 1000
Dangerous builds not checked
Setting up Verlet run ...
  Unit style    : real
  Current step  : 19000
  Time step     : 1
Per MPI rank memory allocation (min/avg/max) = 4.577 | 4.579 | 4.58 Mbytes
Step Temp E_pair E_mol TotEng Press Volume Lx Ly Lz S/CPU 
   19000    288.87465   -10490.583            0   -9630.3636    -3440.936    783.57071    9.2191893    9.2191893    9.2191893            0 
   19100    296.54985   -10517.602            0   -9634.5269    3480.3726    785.14781    9.2253703    9.2253703    9.2253703    47.106368 
   19200    299.27683   -10527.209            0   -9636.0138    7762.8219    786.85046    9.2320341    9.2320341    9.2320341    68.903825 
   19300    289.64509   -10498.513            0   -9635.9991    6423.2124    789.07107    9.2407107    9.2407107    9.2407107    55.142709 
   19400    296.08727    -10517.32            0   -9635.6225   -17154.116    791.31356    9.2494562    9.2494562    9.2494562    55.187609 
   19500    298.13829    -10520.56            0   -9632.7548   -17931.851    792.61733    9.2545333    9.2545333    9.2545333    58.287148 
   19600    293.13209   -10500.829            0   -9627.9321   -6746.2089    792.88507    9.2555752    9.2555752    9.2555752    48.334072 
   19700    299.67593   -10515.369            0   -9622.9848   -13829.433    792.32541     9.253397     9.253397     9.253397    51.095473 
   19800    292.77769   -10484.984            0   -9613.1424   -17385.684     790.6492     9.246867     9.246867     9.246867    71.980573 
   19900    302.80774   -10505.911            0   -9604.2015    546.65364    787.97394    9.2364259    9.2364259    9.2364259    60.858337 
   20000    298.65571   -10479.984            0   -9590.6382   -2446.6622    785.16589    9.2254411    9.2254411    9.2254411    60.390037 
Loop time of 17.6297 on 16 procs for 1000 steps with 1000 atoms

Performance: 4.901 ns/day, 4.897 hours/ns, 56.723 timesteps/s
94.9% CPU use with 16 MPI tasks x no OpenMP threads

MPI task timing breakdown:
Section |  min time  |  avg time  |  max time  |%varavg| %total
---------------------------------------------------------------
Pair    | 2.3592     | 2.4741     | 2.5708     |   3.9 | 14.03
Neigh   | 0.80256    | 0.83015    | 0.86267    |   1.8 |  4.71
Comm    | 0.78532    | 0.91106    | 1.0423     |   7.8 |  5.17
Output  | 8.5705     | 8.8719     | 13.342     |  38.8 | 50.32
Modify  | 0.063407   | 4.5341     | 4.8357     |  54.2 | 25.72
Other   |            | 0.008388   |            |       |  0.05

Nlocal:    62.5 ave 68 max 58 min
Histogram: 1 1 2 5 0 0 3 2 0 2
Nghost:    1863.25 ave 1875 max 1852 min
Histogram: 5 1 0 1 0 1 1 4 2 1
Neighs:    0 ave 0 max 0 min
Histogram: 16 0 0 0 0 0 0 0 0 0
FullNghs:  18790.2 ave 20654 max 17377 min
Histogram: 2 1 5 1 0 2 2 1 0 2

Total # of neighbors = 300644
Ave neighs/atom = 300.644
Neighbor list builds = 1000
Dangerous builds not checked
Setting up Verlet run ...
  Unit style    : real
  Current step  : 20000
  Time step     : 1
Per MPI rank memory allocation (min/avg/max) = 4.577 | 4.579 | 4.58 Mbytes
Step Temp E_pair E_mol TotEng Press Volume Lx Ly Lz S/CPU 
   20000    298.65571   -10479.984            0   -9590.6382   -2446.6622    785.16589    9.2254411    9.2254411    9.2254411            0 
   20100    297.64652   -10463.946            0   -9577.6052   -1557.8385    782.22803    9.2139204    9.2139204    9.2139204    54.515512 
   20200    313.19635   -10497.189            0    -9564.544    5826.5323    779.61488    9.2036488    9.2036488    9.2036488    55.199216 
   20300    299.41808    -10447.56            0   -9555.9439     10084.27    777.45677    9.1951485    9.1951485    9.1951485    61.204221 
   20400    304.84845   -10458.839            0   -9551.0527   -1536.7506    775.92576    9.1891087    9.1891087    9.1891087    46.847331 
   20500    313.20438   -10482.889            0   -9550.2199    9080.5424    774.94072    9.1852186    9.1852186    9.1852186    53.737558 
   20600    308.04721   -10467.044            0   -9549.7324    36689.302    774.68397     9.184204     9.184204     9.184204    54.763874 
   20700    306.56053   -10464.696            0   -9551.8108    25632.127    775.74292    9.1883869    9.1883869    9.1883869    57.319784 
   20800    298.12241   -10442.698            0   -9554.9408    9605.6697    777.84543    9.1966806    9.1966806    9.1966806    54.153998 
   20900    305.96425   -10469.077            0   -9557.9673   -5269.6918    780.09047      9.20552      9.20552      9.20552    46.996782 
   21000    315.21956   -10499.391            0   -9560.7205    -4885.819    782.11547    9.2134785    9.2134785    9.2134785    46.382467 
Loop time of 18.9763 on 16 procs for 1000 steps with 1000 atoms

Performance: 4.553 ns/day, 5.271 hours/ns, 52.697 timesteps/s
94.9% CPU use with 16 MPI tasks x no OpenMP threads

MPI task timing breakdown:
Section |  min time  |  avg time  |  max time  |%varavg| %total
---------------------------------------------------------------
Pair    | 2.4574     | 2.6086     | 2.7187     |   4.8 | 13.75
Neigh   | 0.80988    | 0.84677    | 0.87726    |   2.3 |  4.46
Comm    | 0.74803    | 0.87709    | 1.0656     |  10.5 |  4.62
Output  | 9.4553     | 9.7782     | 14.571     |  39.6 | 51.53
Modify  | 0.06321    | 4.8571     | 5.189      |  56.2 | 25.60
Other   |            | 0.008572   |            |       |  0.05

Nlocal:    62.5 ave 66 max 54 min
Histogram: 2 0 0 1 0 1 2 1 3 6
Nghost:    1848.25 ave 1869 max 1822 min
Histogram: 1 0 1 2 3 4 0 1 3 1
Neighs:    0 ave 0 max 0 min
Histogram: 16 0 0 0 0 0 0 0 0 0
FullNghs:  18878.6 ave 20086 max 16270 min
Histogram: 1 1 0 1 1 0 2 3 3 4

Total # of neighbors = 302058
Ave neighs/atom = 302.058
Neighbor list builds = 1000
Dangerous builds not checked
Setting up Verlet run ...
  Unit style    : real
  Current step  : 21000
  Time step     : 1
Per MPI rank memory allocation (min/avg/max) = 4.577 | 4.579 | 4.58 Mbytes
Step Temp E_pair E_mol TotEng Press Volume Lx Ly Lz S/CPU 
   21000    315.21956   -10499.391            0   -9560.7205    -4885.819    782.11547    9.2134785    9.2134785    9.2134785            0 
   21100    304.53022   -10470.405            0   -9563.5659   -4386.4733    783.80076    9.2200914    9.2200914    9.2200914    47.167752 
   21200    298.03019   -10454.005            0   -9566.5223   -10008.171    785.16889    9.2254529    9.2254529    9.2254529      62.5288 
   21300    299.81673   -10461.526            0   -9568.7232    3185.4995    786.39095    9.2302367    9.2302367    9.2302367    48.917087 
   21400    293.03103   -10443.432            0   -9570.8356   -8019.7212    787.77409     9.235645     9.235645     9.235645    49.134177 
   21500    297.48481   -10458.123            0    -9572.264   -17412.227    788.82461    9.2397485    9.2397485    9.2397485    54.935674 
   21600    297.79451   -10461.243            0   -9574.4623   -18758.179    789.00102    9.2404372    9.2404372    9.2404372    60.854043 
   21700    310.07613   -10500.142            0   -9576.7884    10227.442    788.32201    9.2377857    9.2377857    9.2377857    46.022472 
   21800    296.80397   -10464.412            0   -9580.5801     4412.806    787.79897    9.2357422    9.2357422    9.2357422    60.535134 
   21900    304.03041   -10491.121            0   -9585.7701    -2271.388    787.48049    9.2344975    9.2344975    9.2344975    59.475384 
   22000    291.06358    -10456.46            0   -9589.7222   -6240.6785    787.02394    9.2327125    9.2327125    9.2327125    50.244439 
Loop time of 18.7589 on 16 procs for 1000 steps with 1000 atoms

Performance: 4.606 ns/day, 5.211 hours/ns, 53.308 timesteps/s
94.8% CPU use with 16 MPI tasks x no OpenMP threads

MPI task timing breakdown:
Section |  min time  |  avg time  |  max time  |%varavg| %total
---------------------------------------------------------------
Pair    | 2.4096     | 2.5251     | 2.6444     |   4.3 | 13.46
Neigh   | 0.80427    | 0.83557    | 0.86626    |   1.9 |  4.45
Comm    | 0.78319    | 0.9215     | 1.0699     |   8.6 |  4.91
Output  | 9.7292     | 10.023     | 14.379     |  35.5 | 53.43
Modify  | 0.093359   | 4.4452     | 4.7414     |  53.3 | 23.70
Other   |            | 0.008484   |            |       |  0.05

Nlocal:    62.5 ave 69 max 57 min
Histogram: 3 0 2 0 0 7 2 0 1 1
Nghost:    1857.81 ave 1868 max 1845 min
Histogram: 1 3 1 0 1 2 3 1 0 4
Neighs:    0 ave 0 max 0 min
Histogram: 16 0 0 0 0 0 0 0 0 0
FullNghs:  18755.9 ave 20834 max 17053 min
Histogram: 3 0 1 1 3 4 2 0 1 1

Total # of neighbors = 300094
Ave neighs/atom = 300.094
Neighbor list builds = 1000
Dangerous builds not checked
Setting up Verlet run ...
  Unit style    : real
  Current step  : 22000
  Time step     : 1
Per MPI rank memory allocation (min/avg/max) = 4.577 | 4.579 | 4.58 Mbytes
Step Temp E_pair E_mol TotEng Press Volume Lx Ly Lz S/CPU 
   22000    291.06358    -10456.46            0   -9589.7222   -6240.6785    787.02394    9.2327125    9.2327125    9.2327125            0 
   22100    294.71044   -10473.766            0    -9596.169    4840.4937    786.47315    9.2305583    9.2305583    9.2305583    53.298226 
   22200    289.35371   -10464.152            0   -9602.5062    6597.8285    785.98325    9.2286412    9.2286412    9.2286412     57.22248 
   22300    300.81817   -10504.783            0   -9608.9975    -11810.36    785.28794    9.2259191    9.2259191    9.2259191    50.323106 
   22400    302.49211   -10515.204            0   -9614.4337    2436.0322    783.92719    9.2205871    9.2205871    9.2205871    52.360876 
   22500    297.79005   -10507.504            0    -9620.736   -5121.6619      782.177    9.2137201    9.2137201    9.2137201     57.68633 
   22600    310.36462    -10552.03            0   -9627.8173    44.314204    779.81832    9.2044493    9.2044493    9.2044493    58.497176 
   22700    292.66848   -10504.921            0   -9633.4038    4350.3702    777.23946    9.1942918    9.1942918    9.1942918    48.074536 
   22800    309.75395   -10562.974            0   -9640.5795    8306.4799    774.85383    9.1848752    9.1848752    9.1848752    61.356392 
   22900    294.00474   -10521.856            0   -9646.3596    14085.733    773.32543    9.1788322    9.1788322    9.1788322    44.462655 
   23000    287.66128   -10509.349            0   -9652.7425    3883.7239    772.64779    9.1761504    9.1761504    9.1761504    65.704676 
Loop time of 18.4448 on 16 procs for 1000 steps with 1000 atoms

Performance: 4.684 ns/day, 5.124 hours/ns, 54.216 timesteps/s
94.8% CPU use with 16 MPI tasks x no OpenMP threads

MPI task timing breakdown:
Section |  min time  |  avg time  |  max time  |%varavg| %total
---------------------------------------------------------------
Pair    | 2.3335     | 2.5055     | 2.6381     |   4.9 | 13.58
Neigh   | 0.78422    | 0.82355    | 0.86989    |   2.0 |  4.46
Comm    | 0.75628    | 0.93507    | 1.1467     |   9.5 |  5.07
Output  | 9.5564     | 9.8445     | 14.114     |  35.1 | 53.37
Modify  | 0.057774   | 4.3277     | 4.6162     |  53.0 | 23.46
Other   |            | 0.008496   |            |       |  0.05

Nlocal:    62.5 ave 67 max 57 min
Histogram: 1 0 2 0 2 4 2 0 2 3
Nghost:    1881.06 ave 1900 max 1867 min
Histogram: 2 0 4 3 1 2 2 0 0 2
Neighs:    0 ave 0 max 0 min
Histogram: 16 0 0 0 0 0 0 0 0 0
FullNghs:  19111 ave 20638 max 17395 min
Histogram: 1 1 1 2 4 2 0 1 3 1

Total # of neighbors = 305776
Ave neighs/atom = 305.776
Neighbor list builds = 1000
Dangerous builds not checked
Setting up Verlet run ...
  Unit style    : real
  Current step  : 23000
  Time step     : 1
Per MPI rank memory allocation (min/avg/max) = 4.577 | 4.579 | 4.58 Mbytes
Step Temp E_pair E_mol TotEng Press Volume Lx Ly Lz S/CPU 
   23000    287.66128   -10509.349            0   -9652.7425    3883.7239    772.64779    9.1761504    9.1761504    9.1761504            0 
   23100     286.8608   -10514.116            0   -9659.8935     21871.46    772.80657    9.1767789    9.1767789    9.1767789    56.935079 
   23200    290.74533   -10532.012            0   -9666.2221    9633.7459    774.41505    9.1831412    9.1831412    9.1831412    46.042542 
   23300    301.61968   -10570.783            0   -9672.6112    24284.414    777.33499    9.1946684    9.1946684    9.1946684    59.913285 
   23400    290.69059   -10543.088            0   -9677.4614    2017.5857    781.57794    9.2113673    9.2113673    9.2113673    41.373716 
   23500     285.5573   -10531.907            0   -9681.5663   -27121.153    786.16219    9.2293415    9.2293415    9.2293415    51.409774 
   23600    292.92485   -10555.645            0   -9683.3645   -12464.244    790.02778    9.2444438    9.2444438    9.2444438    68.681232 
   23700    291.47113   -10552.431            0   -9684.4802   -25636.483    792.96423    9.2558832    9.2558832    9.2558832    57.665063 
   23800    293.12154   -10555.611            0   -9682.7449   -31989.688    794.38028    9.2613895    9.2613895    9.2613895    50.743447 
   23900    282.83841   -10518.277            0    -9676.033   -11150.867    794.21036    9.2607291    9.2607291    9.2607291    52.755493 
   24000    287.70586   -10520.577            0    -9663.838   -13534.163    792.78943     9.255203     9.255203     9.255203    57.526168 
Loop time of 18.7543 on 16 procs for 1000 steps with 1000 atoms

Performance: 4.607 ns/day, 5.210 hours/ns, 53.321 timesteps/s
94.9% CPU use with 16 MPI tasks x no OpenMP threads

MPI task timing breakdown:
Section |  min time  |  avg time  |  max time  |%varavg| %total
---------------------------------------------------------------
Pair    | 2.4163     | 2.5324     | 2.6942     |   4.8 | 13.50
Neigh   | 0.81462    | 0.8379     | 0.87055    |   1.9 |  4.47
Comm    | 0.72629    | 0.9149     | 1.0533     |   9.5 |  4.88
Output  | 10.015     | 10.292     | 14.392     |  33.0 | 54.88
Modify  | 0.067189   | 4.1683     | 4.4461     |  51.9 | 22.23
Other   |            | 0.008589   |            |       |  0.05

Nlocal:    62.5 ave 68 max 58 min
Histogram: 1 2 4 1 0 1 1 3 1 2
Nghost:    1844.75 ave 1863 max 1831 min
Histogram: 1 1 2 2 5 3 1 0 0 1
Neighs:    0 ave 0 max 0 min
Histogram: 16 0 0 0 0 0 0 0 0 0
FullNghs:  18617.5 ave 20526 max 17173 min
Histogram: 1 6 1 0 1 1 2 2 1 1

Total # of neighbors = 297880
Ave neighs/atom = 297.88
Neighbor list builds = 1000
Dangerous builds not checked
Setting up Verlet run ...
  Unit style    : real
  Current step  : 24000
  Time step     : 1
Per MPI rank memory allocation (min/avg/max) = 4.577 | 4.579 | 4.58 Mbytes
Step Temp E_pair E_mol TotEng Press Volume Lx Ly Lz S/CPU 
   24000    287.70586   -10520.577            0    -9663.838   -13534.163    792.78943     9.255203     9.255203     9.255203            0 
   24100    296.39013   -10529.672            0   -9647.0727   -15938.144    790.11922    9.2448005    9.2448005    9.2448005    55.093669 
   24200    296.87178   -10513.537            0   -9629.5035     10428.36    786.91721    9.2322952    9.2322952    9.2322952    58.550686 
   24300    300.48398   -10510.743            0   -9615.9534    -1858.541    784.12734    9.2213718    9.2213718    9.2213718    49.235704 
   24400    293.02109   -10477.903            0   -9605.3366     3454.719    781.67624    9.2117534    9.2117534    9.2117534    52.389475 
   24500    297.31788   -10483.441            0   -9598.0793    2613.4558     779.5522    9.2034022    9.2034022    9.2034022    47.207672 
   24600    306.75279   -10506.635            0   -9593.1777    22280.707      777.821    9.1965843    9.1965843    9.1965843    57.696593 
   24700    300.00378    -10481.63            0   -9588.2704    5224.8984    776.95294    9.1931618    9.1931618    9.1931618    51.140502 
   24800    309.83361   -10509.878            0    -9587.246    18468.311    776.91962    9.1930304    9.1930304    9.1930304    65.569648 
   24900    305.81363   -10497.816            0   -9587.1555    27563.062    777.85091    9.1967022    9.1967022    9.1967022    59.807038 
   25000    296.64846   -10469.294            0   -9585.9256    16130.922    779.96197    9.2050145    9.2050145    9.2050145    48.913543 
Loop time of 18.5114 on 16 procs for 1000 steps with 1000 atoms

Performance: 4.667 ns/day, 5.142 hours/ns, 54.021 timesteps/s
94.9% CPU use with 16 MPI tasks x no OpenMP threads

MPI task timing breakdown:
Section |  min time  |  avg time  |  max time  |%varavg| %total
---------------------------------------------------------------
Pair    | 2.4661     | 2.5517     | 2.6544     |   3.5 | 13.78
Neigh   | 0.81747    | 0.83968    | 0.87853    |   2.1 |  4.54
Comm    | 0.74481    | 0.88475    | 0.9924     |   7.5 |  4.78
Output  | 9.5758     | 9.8668     | 14.177     |  35.4 | 53.30
Modify  | 0.049344   | 4.3599     | 4.6512     |  53.3 | 23.55
Other   |            | 0.008548   |            |       |  0.05

Nlocal:    62.5 ave 69 max 59 min
Histogram: 3 0 2 3 2 5 0 0 0 1
Nghost:    1867.69 ave 1878 max 1850 min
Histogram: 1 0 1 1 1 2 3 1 4 2
Neighs:    0 ave 0 max 0 min
Histogram: 16 0 0 0 0 0 0 0 0 0
FullNghs:  18919.9 ave 21087 max 17827 min
Histogram: 3 2 1 3 5 1 0 0 0 1

Total # of neighbors = 302718
Ave neighs/atom = 302.718
Neighbor list builds = 1000
Dangerous builds not checked
Setting up Verlet run ...
  Unit style    : real
  Current step  : 25000
  Time step     : 1
Per MPI rank memory allocation (min/avg/max) = 4.577 | 4.579 | 4.58 Mbytes
Step Temp E_pair E_mol TotEng Press Volume Lx Ly Lz S/CPU 
   25000    296.64846   -10469.294            0   -9585.9256    16130.922    779.96197    9.2050145    9.2050145    9.2050145            0 
   25100    300.35745    -10481.95            0   -9587.5372     19331.44    782.90954    9.2165955    9.2165955    9.2165955    55.744752 
   25200    300.30318   -10482.613            0   -9588.3615    2417.2737    786.85053    9.2320344    9.2320344    9.2320344    48.704165 
   25300    305.78906    -10499.66            0   -9589.0719   -6925.5598    790.81637    9.2475187    9.2475187    9.2475187    50.650959 
   25400    291.66411   -10458.375            0   -9589.8492   -9366.7249    794.28713    9.2610275    9.2610275    9.2610275    45.941224 
   25500    297.31151   -10476.834            0   -9591.4916   -22333.865    797.03331    9.2716883    9.2716883    9.2716883    51.615686 
   25600    307.36391   -10506.834            0   -9591.5572   -29990.647    798.46543    9.2772382    9.2772382    9.2772382    50.686503 
   25700    294.05691   -10467.009            0    -9591.358   -29161.668    797.87336    9.2749446    9.2749446    9.2749446    58.327031 
   25800    291.27083   -10459.587            0   -9592.2324   -19762.462    795.24893    9.2647641    9.2647641    9.2647641    58.844978 
   25900     310.3715   -10518.027            0    -9593.794   -992.23834     791.7333    9.2510914    9.2510914    9.2510914    52.994168 
   26000    300.66544   -10488.213            0   -9592.8825    12795.265    788.11215    9.2369659    9.2369659    9.2369659    61.842706 
Loop time of 18.8263 on 16 procs for 1000 steps with 1000 atoms

Performance: 4.589 ns/day, 5.230 hours/ns, 53.117 timesteps/s
94.8% CPU use with 16 MPI tasks x no OpenMP threads

MPI task timing breakdown:
Section |  min time  |  avg time  |  max time  |%varavg| %total
---------------------------------------------------------------
Pair    | 2.3828     | 2.5557     | 2.6523     |   4.6 | 13.58
Neigh   | 0.80552    | 0.84838    | 0.88667    |   2.3 |  4.51
Comm    | 0.69241    | 0.82692    | 1.0425     |  10.1 |  4.39
Output  | 9.4247     | 9.7409     | 14.433     |  38.8 | 51.74
Modify  | 0.15472    | 4.8458     | 5.1625     |  55.0 | 25.74
Other   |            | 0.008512   |            |       |  0.05

Nlocal:    62.5 ave 69 max 58 min
Histogram: 4 0 3 1 2 2 2 0 1 1
Nghost:    1843.25 ave 1878 max 1820 min
Histogram: 1 3 1 2 3 3 2 0 0 1
Neighs:    0 ave 0 max 0 min
Histogram: 16 0 0 0 0 0 0 0 0 0
FullNghs:  18738.9 ave 21154 max 17291 min
Histogram: 3 1 3 3 0 3 1 1 0 1

Total # of neighbors = 299822
Ave neighs/atom = 299.822
Neighbor list builds = 1000
Dangerous builds not checked
Setting up Verlet run ...
  Unit style    : real
  Current step  : 26000
  Time step     : 1
Per MPI rank memory allocation (min/avg/max) = 4.577 | 4.579 | 4.58 Mbytes
Step Temp E_pair E_mol TotEng Press Volume Lx Ly Lz S/CPU 
   26000    300.66544   -10488.213            0   -9592.8825    12795.265    788.11215    9.2369659    9.2369659    9.2369659            0 
   26100    296.05266   -10475.158            0   -9593.5634    4784.4462    784.64819    9.2234131    9.2234131    9.2234131    56.788439 
   26200    299.26494   -10484.267            0   -9593.1066    5804.8716    781.59971    9.2114528    9.2114528    9.2114528    49.776498 
   26300    304.92689   -10502.848            0    -9594.828    28822.789    779.36324    9.2026585    9.2026585    9.2026585    66.748621 
   26400    306.31829   -10509.493            0   -9597.3296    17211.249    778.31998    9.1985504    9.1985504    9.1985504    42.869348 
   26500     292.4396   -10469.189            0   -9598.3539    7747.9836    778.59859    9.1996479    9.1996479    9.1996479    44.787085 
   26600    306.29517   -10513.029            0   -9600.9341     11060.88    779.89006    9.2047316    9.2047316    9.2047316    52.462566 
   26700    307.09635   -10516.969            0   -9602.4886    1283.3198    781.88173    9.2125606    9.2125606    9.2125606     58.22484 
   26800    302.42066   -10504.183            0   -9603.6254   -991.53171    784.05612    9.2210926    9.2210926    9.2210926    54.444006 
   26900    294.05027   -10481.851            0   -9606.2198    480.95926    786.12387    9.2291916    9.2291916    9.2291916    70.728226 
   27000    296.50222   -10491.552            0    -9608.619   -5792.8767    787.87639    9.2360447    9.2360447    9.2360447    61.307796 
Loop time of 18.3389 on 16 procs for 1000 steps with 1000 atoms

Performance: 4.711 ns/day, 5.094 hours/ns, 54.529 timesteps/s
94.9% CPU use with 16 MPI tasks x no OpenMP threads

MPI task timing breakdown:
Section |  min time  |  avg time  |  max time  |%varavg| %total
---------------------------------------------------------------
Pair    | 2.412      | 2.5695     | 2.6839     |   4.8 | 14.01
Neigh   | 0.80517    | 0.84197    | 0.88417    |   2.1 |  4.59
Comm    | 0.71721    | 0.87123    | 1.0661     |  10.1 |  4.75
Output  | 9.7114     | 9.9778     | 13.923     |  32.2 | 54.41
Modify  | 0.12976    | 4.0698     | 4.3358     |  50.4 | 22.19
Other   |            | 0.008564   |            |       |  0.05

Nlocal:    62.5 ave 66 max 57 min
Histogram: 1 0 1 1 2 1 4 3 2 1
Nghost:    1851 ave 1866 max 1830 min
Histogram: 1 1 1 0 1 3 5 1 1 2
Neighs:    0 ave 0 max 0 min
Histogram: 16 0 0 0 0 0 0 0 0 0
FullNghs:  18706.5 ave 19775 max 16967 min
Histogram: 1 0 1 1 2 1 3 3 2 2

Total # of neighbors = 299304
Ave neighs/atom = 299.304
Neighbor list builds = 1000
Dangerous builds not checked
Setting up Verlet run ...
  Unit style    : real
  Current step  : 27000
  Time step     : 1
Per MPI rank memory allocation (min/avg/max) = 4.577 | 4.579 | 4.58 Mbytes
Step Temp E_pair E_mol TotEng Press Volume Lx Ly Lz S/CPU 
   27000    296.50222   -10491.552            0    -9608.619   -5792.8767    787.87639    9.2360447    9.2360447    9.2360447            0 
   27100    298.18647   -10498.662            0    -9610.714   -14684.102    789.07363    9.2407207    9.2407207    9.2407207    62.379841 
   27200     305.1039   -10522.558            0   -9614.0105   -15099.523    789.30097     9.241608     9.241608     9.241608    56.491022 
   27300    306.95588   -10532.385            0   -9618.3232     601.2954    788.67391    9.2391601    9.2391601    9.2391601    58.672369 
   27400    302.83398   -10524.565            0   -9622.7772    8215.2961     787.6544    9.2351772    9.2351772    9.2351772     57.07806 
   27500    296.78666   -10511.126            0   -9627.3462    6456.8818    786.37431    9.2301715    9.2301715    9.2301715    63.330686 
   27600    293.90467   -10506.697            0   -9631.4995    6503.2149    785.09488     9.225163     9.225163     9.225163    50.968709 
   27700     297.1353   -10521.483            0   -9636.6649    10848.296    784.02838    9.2209838    9.2209838    9.2209838    64.419346 
   27800    291.76687   -10510.023            0   -9641.1909    6375.5575    783.24397    9.2179077    9.2179077    9.2179077     46.55357 
   27900    294.14263   -10522.813            0   -9646.9062   -1061.8312    782.89012    9.2165193    9.2165193    9.2165193    61.624349 
   28000     292.1419   -10522.416            0   -9652.4678   -14251.336    782.74382    9.2159452    9.2159452    9.2159452    49.056286 
Loop time of 17.7323 on 16 procs for 1000 steps with 1000 atoms

Performance: 4.872 ns/day, 4.926 hours/ns, 56.394 timesteps/s
[...]
  273700    307.80823   -11496.561            0   -10579.961     4543.146    748.60304    9.0799585    9.0799585    9.0799585    44.065675 
  273800    291.05396   -11452.062            0   -10585.353   -3888.6171    749.69722    9.0843802    9.0843802    9.0843802    72.091986 
  273900    301.84917   -11495.686            0   -10596.831    2327.6673    750.71292    9.0884808    9.0884808    9.0884808    45.874287 
  274000    301.54355   -11507.726            0    -10609.78   -10763.864    751.41706    9.0913215    9.0913215    9.0913215    55.082579 
  274100    289.68898   -11484.246            0   -10621.601   -4778.4765    751.68022    9.0923827    9.0923827    9.0923827    66.851698 
  274200    293.73756   -11507.489            0   -10632.789   -14323.006    751.57222    9.0919472    9.0919472    9.0919472    40.660512 
  274300    293.99315   -11516.332            0   -10640.871   -4229.4677    750.84717    9.0890226    9.0890226    9.0890226    51.247513 
  274400    284.37399   -11492.515            0   -10645.698    -8459.844    749.66273    9.0842409    9.0842409    9.0842409    54.246174 
  274500    289.65939   -11510.742            0   -10648.185    2740.4498    748.14678    9.0781134    9.0781134    9.0781134    61.591877 
  274600    287.48404   -11504.798            0    -10648.72    4329.4821    746.81951    9.0727418    9.0727418    9.0727418    56.705878 
  274700    285.50749   -11495.332            0    -10645.14    5744.2734    746.13213    9.0699574    9.0699574    9.0699574     61.57824 
  274800    298.35643   -11528.489            0   -10640.034     14914.41    746.10414     9.069844     9.069844     9.069844     62.69711 
  274900    286.21526   -11484.655            0   -10632.355     6099.882     746.7618    9.0725081    9.0725081    9.0725081    46.430081 
  275000    288.16478   -11481.196            0   -10623.091    3483.1123    747.91091    9.0771593    9.0771593    9.0771593    59.872283 
  275100    289.52477    -11472.43            0   -10610.275    4512.7999    749.43861    9.0833355    9.0833355    9.0833355    45.523279 
  275200    292.95626   -11470.849            0   -10598.476   -14365.955    751.06251    9.0898914    9.0898914    9.0898914    45.759388 
  275300    291.99375   -11457.806            0   -10588.299   -10637.781    752.22498    9.0945787    9.0945787    9.0945787    44.614233 
  275400     300.3829   -11473.984            0   -10579.495   -12049.239    752.71524     9.096554     9.096554     9.096554    61.240798 
  275500    304.27068   -11480.022            0   -10573.956   -9651.8928    752.47807    9.0955985    9.0955985    9.0955985     50.50821 
  275600    309.32674   -11490.604            0   -10569.482   -4104.5625    751.61433     9.092117     9.092117     9.092117    54.024898 
  275700    304.66361   -11473.183            0   -10565.947    3947.0914    750.38844    9.0871712    9.0871712    9.0871712     63.47143 
  275800     308.4173   -11481.517            0   -10563.103    5875.5875    749.26974    9.0826532    9.0826532    9.0826532    58.130647 
  275900      294.178   -11435.603            0   -10559.591    5108.4878    748.43859    9.0792935    9.0792935    9.0792935    58.266495 
  276000    308.55414   -11478.088            0   -10559.267    7749.5616    747.99573    9.0775024    9.0775024    9.0775024    64.512104 
  276100    301.61271   -11454.832            0   -10556.681    5982.9046    748.09412    9.0779004    9.0779004    9.0779004    53.173156 
  276200    303.27944   -11459.651            0   -10556.537    17386.013    748.79065    9.0807169    9.0807169    9.0807169      52.5927 
  276300    310.19373   -11480.313            0   -10556.609   -18.170562    749.88894    9.0851545    9.0851545    9.0851545    50.106238 
  276400    305.40111   -11466.147            0   -10556.714    -4484.443     751.0741    9.0899382    9.0899382    9.0899382    76.904279 
  276500    297.86626   -11443.388            0   -10556.393   -6273.0842    751.84496    9.0930469    9.0930469    9.0930469    57.146689 
  276600    307.58336   -11472.791            0    -10556.86   -7795.8169    752.15874    9.0943117    9.0943117    9.0943117    51.804368 
  276700    302.61979   -11458.997            0   -10557.847   -8021.7465    752.02045    9.0937543    9.0937543    9.0937543     63.74651 
  276800    299.13244   -11449.237            0   -10558.472   -6750.6798    751.37209    9.0911402    9.0911402    9.0911402    52.312344 
  276900    302.79742   -11462.753            0   -10561.073    3204.0713    750.31679     9.086882     9.086882     9.086882    54.934573 
  277000    299.25417   -11455.615            0   -10564.487    11348.286    749.20811    9.0824042    9.0824042    9.0824042    74.684252 
  277100    297.94173   -11456.127            0   -10568.907     11324.04    748.50667    9.0795688    9.0795688    9.0795688     53.96764 
  277200    292.97693   -11446.633            0   -10574.197    8107.6171    748.37455    9.0790346    9.0790346    9.0790346    52.101105 
  277300    302.52006   -11484.119            0   -10583.266    -1577.761    748.72266    9.0804421    9.0804421    9.0804421    69.489014 
  277400    303.58786   -11495.077            0   -10591.044   -3767.0513    749.35156    9.0829838    9.0829838    9.0829838    49.992872 
  277500    294.79148    -11477.31            0   -10599.472   -6285.6676    750.01888    9.0856792    9.0856792    9.0856792    54.890659 
  277600    293.50519   -11480.826            0   -10606.817   -7044.5722    750.47907    9.0875371    9.0875371    9.0875371    63.836729 
  277700    285.74962   -11463.736            0   -10612.822   -855.31207    750.65874    9.0882622    9.0882622    9.0882622    53.814389 
  277800    290.37344   -11481.679            0   -10616.996   -10773.579    750.50304    9.0876338    9.0876338    9.0876338    58.928155 
  277900    294.42537   -11497.213            0   -10620.465    6079.2153    749.89858    9.0851934    9.0851934    9.0851934    69.598743 
  278000    289.37829    -11483.79            0   -10622.071    1197.5151    749.06829    9.0818391    9.0818391    9.0818391    52.094781 
  278100    289.36021   -11482.035            0    -10620.37    1201.5773    748.27877    9.0786472    9.0786472    9.0786472    57.480122 
  278200     287.3918   -11473.885            0   -10618.081    8070.8168    747.72202     9.076395     9.076395     9.076395    52.040241 
  278300    291.47395   -11480.894            0   -10612.934    1390.3515    747.50568    9.0755196    9.0755196    9.0755196    53.668994 
  278400    300.15796   -11498.853            0   -10605.034      3208.79    747.62339     9.075996     9.075996     9.075996     57.11643 
  278500    299.45191   -11485.926            0   -10594.209    10386.905    748.17544    9.0782293    9.0782293    9.0782293    65.538612 
  278600    300.34198    -11475.41            0   -10581.043   -1728.4125    749.11348    9.0820217    9.0820217    9.0820217    51.084152 
  278700    308.27869   -11485.146            0   -10567.145    229.55199    750.10925    9.0860441    9.0860441    9.0860441    49.411233 
  278800    297.65321   -11443.351            0    -10556.99   -50.842874    751.06011    9.0898817    9.0898817    9.0898817    74.046928 
  278900    302.56461   -11449.319            0   -10548.333   -4133.5146    751.78465    9.0928037    9.0928037    9.0928037    56.143047 
  279000    309.11779   -11462.606            0   -10542.106   -9291.3288    752.13427    9.0942131    9.0942131    9.0942131    41.625132 
  279100     300.3016   -11432.923            0   -10538.676   -8649.6525    751.86908    9.0931441    9.0931441    9.0931441    74.825707 
  279200     297.4594   -11420.953            0    -10535.17    9.5521831    751.13039    9.0901652    9.0901652    9.0901652    47.169886 
  279300    299.77314   -11429.056            0   -10536.382    3836.4726    750.16094    9.0862528    9.0862528    9.0862528    56.116757 
  279400    303.97034   -11442.256            0   -10537.084    9434.9807    749.32019     9.082857     9.082857     9.082857    64.088738 
  279500    301.88516   -11436.875            0   -10537.912    10362.268    748.66991    9.0802288    9.0802288    9.0802288    54.239064 
  279600    305.85761   -11451.184            0   -10540.392    2786.8421    748.42977    9.0792579    9.0792579    9.0792579    55.219311 
  279700    309.58242   -11464.513            0   -10542.629    20282.992    748.65685     9.080176     9.080176     9.080176    52.231637 
  279800     304.8334   -11453.807            0   -10546.065    2720.5152    749.57358    9.0838807    9.0838807    9.0838807    60.846997 
  279900    295.42455   -11429.186            0   -10549.462   -770.05159    750.86916    9.0891113    9.0891113    9.0891113    48.669124 
  280000    297.00671   -11439.296            0    -10554.86   -8539.5847    752.03986    9.0938325    9.0938325    9.0938325    52.761361 
  280100    299.29506   -11451.426            0   -10560.177    -10834.72    752.78201     9.096823     9.096823     9.096823    63.544527 
  280200    285.70425   -11415.023            0   -10564.245   -8040.0507    752.88695    9.0972457    9.0972457    9.0972457    57.794731 
  280300    295.96313   -11453.899            0   -10572.571   -16322.825    752.26765    9.0947506    9.0947506    9.0947506    52.758583 
  280400    299.90014   -11472.448            0   -10579.397   -6652.6563    750.96931    9.0895154    9.0895154    9.0895154    52.994352 
  280500    293.71716   -11463.573            0   -10588.933    2922.2499    749.29476    9.0827543    9.0827543    9.0827543    62.835398 
  280600    298.44622   -11487.493            0   -10598.771    5845.4405    747.66927    9.0761816    9.0761816    9.0761816    57.718165 
  280700    295.69556   -11490.423            0   -10609.892    9670.9315    746.51254    9.0714985    9.0714985    9.0714985    52.725656 
  280800    295.50241   -11502.981            0   -10623.025    3270.4062    746.08604    9.0697706    9.0697706    9.0697706    65.220597 
  280900    290.44046   -11500.846            0   -10635.964    6257.6351    746.40839    9.0710767    9.0710767    9.0710767    54.507497 
  281000    280.98426   -11483.459            0   -10646.736    2821.2809    747.44519    9.0752748    9.0752748    9.0752748    43.637029 
  281100    283.01844   -11497.541            0    -10654.76    4821.8432    748.78762    9.0807047    9.0807047    9.0807047    52.093955 
  281200    287.60474   -11516.091            0   -10659.653   -1613.0468     750.1178    9.0860786    9.0860786    9.0860786    57.541601 
  281300    279.88686    -11494.01            0   -10660.555   -13929.165    751.09058    9.0900047    9.0900047    9.0900047    60.643209 
  281400    297.72843   -11545.618            0   -10659.033   -18992.417    751.32123     9.090935     9.090935     9.090935    52.256069 
  281500    292.25438   -11525.626            0   -10655.342   -10926.032     750.6289    9.0881418    9.0881418    9.0881418     64.66865 
  281600    287.24302    -11504.04            0    -10648.68   -6421.1451    749.32717    9.0828853    9.0828853    9.0828853    44.573769 
  281700    292.67601   -11514.243            0   -10642.703    9193.6816    747.82028    9.0767926    9.0767926    9.0767926    57.478491 
  281800    292.15024   -11507.054            0   -10637.081    8548.7474    746.54006      9.07161      9.07161      9.07161    63.509627 
  281900    281.89618     -11468.8            0   -10629.361    15045.367    745.86245    9.0688645    9.0688645    9.0688645    55.061302 
  282000    289.05793   -11486.597            0   -10625.832    14718.246    745.99188    9.0693891    9.0693891    9.0693891    52.108918 
  282100    286.55805   -11474.198            0   -10620.877    12121.044    746.95206    9.0732786    9.0732786    9.0732786    60.376674 
  282200    294.89825   -11494.438            0   -10616.281    3719.0098    748.62221     9.080036     9.080036     9.080036    59.984283 
  282300    292.38116   -11481.402            0   -10610.741   -7438.2685     750.5436    9.0877975    9.0877975    9.0877975    47.350162 
  282400    298.05168   -11491.358            0   -10603.811   -15621.351    752.22926    9.0945959    9.0945959    9.0945959    47.899973 
  282500     291.6289   -11463.732            0   -10595.311   -8913.0681     753.2537    9.0987226    9.0987226    9.0987226    63.430567 
  282600    287.08632   -11441.204            0    -10586.31   -16688.002    753.22733    9.0986164    9.0986164    9.0986164    53.206665 
  282700    285.94256   -11428.906            0   -10577.418    -6815.068    752.24811    9.0946719    9.0946719    9.0946719    52.686946 
  282800    303.53348   -11473.777            0   -10569.906   -2024.5801    750.64392    9.0882024    9.0882024    9.0882024    48.251509 
  282900    294.03895   -11436.707            0   -10561.109    10524.034    748.77358    9.0806479    9.0806479    9.0806479     48.07022 
  283000    302.40306   -11455.362            0   -10554.857    8930.7498    747.18989    9.0742414    9.0742414    9.0742414     55.14107 
  283100    304.94716   -11456.963            0   -10548.882    12120.193    746.45258    9.0712557    9.0712557    9.0712557    50.626209 
  283200    300.59895   -11440.839            0   -10545.707     12737.61    746.75381    9.0724757    9.0724757    9.0724757     65.45215 
  283300    309.04981   -11463.619            0   -10543.321    9413.0124    748.02565    9.0776234    9.0776234    9.0776234    53.944906 
  283400    305.24184   -11450.026            0   -10541.068    1929.5891    750.05814    9.0858377    9.0858377    9.0858377    59.129478 
  283500    305.39287   -11448.917            0   -10539.509   -9699.8601    752.34189    9.0950498    9.0950498    9.0950498    61.882884 
  283600    302.62742   -11439.638            0   -10538.465   -18883.624    754.36409    9.1031913    9.1031913    9.1031913    46.259612 
  283700    307.16961   -11452.046            0   -10537.347    -24773.07    755.37937    9.1072734    9.1072734    9.1072734     49.77266 
  283800    297.92766    -11422.76            0   -10535.583   -25856.394    754.99113    9.1057128    9.1057128    9.1057128    50.187247 
  283900    303.61108    -11442.18            0   -10538.078   -12633.812    753.33067    9.0990325    9.0990325    9.0990325    60.295696 
  284000    292.32565   -11408.974            0   -10538.478   -2704.8191    750.74256    9.0886004    9.0886004    9.0886004     36.72297 
  284100    294.77159    -11420.48            0   -10542.701    10697.978     747.8936    9.0770893    9.0770893    9.0770893     50.44932 
  284200    302.09698   -11448.371            0   -10548.778    18896.937    745.67411    9.0681011    9.0681011    9.0681011    57.951894 
  284300    299.06096   -11448.516            0   -10557.963     27119.33    744.74922    9.0643504    9.0643504    9.0643504    50.632119 
  284400    303.68239   -11477.062            0   -10572.748    16823.094    745.40442    9.0670078    9.0670078    9.0670078    40.596391 
  284500    300.79319   -11483.657            0   -10587.946    6695.9679    747.39358    9.0750659    9.0750659    9.0750659    44.383782 
  284600    291.20333   -11468.073            0   -10600.919    -859.8517    750.22306    9.0865036    9.0865036    9.0865036    47.692333 
  284700    291.10997   -11476.794            0   -10609.918   -21302.796    752.96333    9.0975533    9.0975533    9.0975533    69.396424 
  284800     292.7285   -11488.463            0   -10616.767    -19889.35     754.6904    9.1045037    9.1045037    9.1045037    45.221346 
  284900    289.81207   -11483.234            0   -10620.223   -20925.245    754.97948     9.105666     9.105666     9.105666    58.648499 
  285000    294.20573   -11497.882            0   -10621.787   -13485.046    753.64681    9.1003052    9.1003052    9.1003052     48.65204 
  285100    291.53326   -11488.716            0    -10620.58   -4759.7516    751.12936    9.0901611    9.0901611    9.0901611    50.100458 
  285200    296.56815   -11500.829            0     -10617.7   -2478.8475    748.34429    9.0789122    9.0789122    9.0789122     46.57612 
  285300    289.08328   -11473.394            0   -10612.553    23080.346    745.90736    9.0690466    9.0690466    9.0690466    47.184467 
  285400    284.54718   -11454.471            0   -10607.138    27797.581    744.55045    9.0635439    9.0635439    9.0635439    62.226548 
  285500    292.82083   -11472.889            0   -10600.919     19083.57    744.67797    9.0640613    9.0640613    9.0640613    47.401721 
  285600    306.05343   -11507.348            0   -10595.973     14794.54     746.1359    9.0699727    9.0699727    9.0699727    50.969358 
  285700    294.56962   -11462.999            0   -10585.821    6673.6833    748.47058    9.0794229    9.0794229    9.0794229     63.03478 
  285800    302.19329   -11478.402            0   -10578.522   -7065.7749    751.08679    9.0899894    9.0899894    9.0899894    57.346672 
  285900    296.68016   -11452.278            0   -10568.815   -18266.336    753.34139    9.0990757    9.0990757    9.0990757    55.965133 
  286000    294.01548   -11434.675            0   -10559.147   -11586.176    754.82784    9.1050563    9.1050563    9.1050563     65.84451 
  286100    297.67313   -11438.575            0   -10552.155   -24666.266    755.13318    9.1062839    9.1062839    9.1062839    53.486146 
  286200    298.42897   -11433.719            0   -10545.049   -18512.695    754.17964    9.1024493    9.1024493    9.1024493    65.295982 
  286300    303.85795   -11446.236            0   -10541.398   -10901.366    752.14721    9.0942652    9.0942652    9.0942652    47.843511 
  286400    300.67782   -11432.765            0   -10537.397    2627.3693    749.65288    9.0842011    9.0842011    9.0842011    55.148594 
  286500    301.27458   -11432.571            0   -10535.427    11370.582    747.36793    9.0749621    9.0749621    9.0749621    61.215269 
  286600    305.55507   -11445.722            0   -10535.831    16556.227    746.02787    9.0695349    9.0695349    9.0695349    50.531495 
  286700    301.72684   -11435.506            0   -10537.015    17483.566    745.90113    9.0690213    9.0690213    9.0690213    50.603339 
  286800      308.077   -11457.727            0   -10540.327    13800.226    747.04946    9.0736729    9.0736729    9.0736729    55.396172 
  286900    298.31635   -11430.453            0   -10542.118    6376.1724    749.19943    9.0823691    9.0823691    9.0823691    58.167161 
  287000    301.10653   -11442.201            0   -10545.557   -1444.5693    751.64064    9.0922231    9.0922231    9.0922231    52.521885 
Loop time of 1853.89 on 16 procs for 100000 steps with 1000 atoms

Performance: 4.660 ns/day, 5.150 hours/ns, 53.941 timesteps/s
94.8% CPU use with 16 MPI tasks x no OpenMP threads

MPI task timing breakdown:
Section |  min time  |  avg time  |  max time  |%varavg| %total
---------------------------------------------------------------
Pair    | 242.81     | 245.93     | 252.31     |  14.1 | 13.27
Neigh   | 83.978     | 85.365     | 87.552     |  12.6 |  4.60
Comm    | 74.275     | 82.334     | 86.42      |  31.7 |  4.44
Output  | 961.65     | 991.4      | 1431.8     | 361.1 | 53.48
Modify  | 7.6029     | 447.99     | 477.75     | 537.2 | 24.16
Other   |            | 0.8632     |            |       |  0.05

Nlocal:    62.5 ave 66 max 56 min
Histogram: 1 0 0 0 1 1 5 4 0 4
Nghost:    1909.81 ave 1930 max 1894 min
Histogram: 2 1 2 2 4 1 2 0 0 2
Neighs:    0 ave 0 max 0 min
Histogram: 16 0 0 0 0 0 0 0 0 0
FullNghs:  19583.4 ave 20756 max 17507 min
Histogram: 1 0 0 0 2 3 5 1 2 2

Total # of neighbors = 313334
Ave neighs/atom = 313.334
Neighbor list builds = 100000
Dangerous builds not checked
Total wall time: 1:28:50
