LAMMPS (16 Mar 2018)
Reading data file ...
  orthogonal box = (-4.72326 -4.72326 -4.72326) to (4.72326 4.72326 4.72326)
  2 by 2 by 4 MPI processor grid
  reading atoms ...
  1000 atoms
Reading potential file /home/fs01/ajm529/lammps-16Mar18/potentials/sw_potentials/AG/eps2.23.sw with DATE: 2008-01-29
Neighbor list info ...
  update every 1 steps, delay 0 steps, check no
  max neighbors/atom: 2000, page size: 100000
  master list distance cutoff = 3.836
  ghost atom cutoff = 3.836
  binsize = 1.918, bins = 5 5 5
  1 neighbor lists, perpetual/occasional/extra = 1 0 0
  (1) pair sw, perpetual
      attributes: full, newton on
      pair build: full/bin/atomonly
      stencil: full/bin/3d
      bin: standard
Setting up Verlet run ...
  Unit style    : real
  Current step  : 0
  Time step     : 1
Per MPI rank memory allocation (min/avg/max) = 3.518 | 3.519 | 3.52 Mbytes
Step Temp E_pair E_mol TotEng Press Volume Lx Ly Lz S/CPU 
       0          300   -10116.599            0   -9223.2507   -34598.901     842.9791    9.4465291    9.4465291    9.4465291            0 
     100    325.39666   -10197.317            0   -9228.3414    -61036.97    840.94392    9.4389209    9.4389209    9.4389209    43.781124 
     200     322.3107   -10202.108            0   -9242.3219   -42674.664    834.62967    9.4152374    9.4152374    9.4152374    44.714301 
     300    322.11148   -10222.841            0   -9263.6479   -38518.819    825.00637    9.3789114    9.3789114    9.3789114    45.324099 
     400    310.35734   -10208.559            0   -9284.3681   -8815.5255    813.87619    9.3365433    9.3365433    9.3365433    40.769616 
     500    325.79975   -10275.118            0    -9304.942   -10086.386    803.24094    9.2956967    9.2956967    9.2956967    35.169249 
     600    332.22301   -10309.462            0   -9320.1585    2971.9099    794.40928    9.2615022    9.2615022    9.2615022    44.479394 
     700    321.87597    -10290.09            0   -9331.5987    17463.831    787.81338    9.2357985    9.2357985    9.2357985    45.867573 
     800    323.99223   -10310.924            0   -9346.1306    32584.497     783.4938    9.2188876    9.2188876    9.2188876    36.971477 
     900    333.89348   -10359.247            0   -9364.9694    5572.0317     781.7552    9.2120636    9.2120636    9.2120636    54.311851 
    1000    327.85828   -10361.797            0   -9385.4908    2016.0386    781.64401    9.2116268    9.2116268    9.2116268    40.219204 
Loop time of 23.4839 on 16 procs for 1000 steps with 1000 atoms

Performance: 3.679 ns/day, 6.523 hours/ns, 42.582 timesteps/s
94.6% CPU use with 16 MPI tasks x no OpenMP threads

MPI task timing breakdown:
Section |  min time  |  avg time  |  max time  |%varavg| %total
---------------------------------------------------------------
Pair    | 2.1976     | 2.2833     | 2.4104     |   3.4 |  9.72
Neigh   | 0.77256    | 0.79052    | 0.83652    |   2.0 |  3.37
Comm    | 0.82126    | 0.99399    | 1.0933     |   6.3 |  4.23
Output  | 13.906     | 14.248     | 19.33      |  34.8 | 60.67
Modify  | 0.077638   | 5.1594     | 5.5021     |  57.8 | 21.97
Other   |            | 0.008242   |            |       |  0.04

Nlocal:    62.5 ave 69 max 59 min
Histogram: 2 1 3 2 3 3 1 0 0 1
Nghost:    1867.44 ave 1884 max 1849 min
Histogram: 2 0 3 1 2 0 2 2 2 2
Neighs:    0 ave 0 max 0 min
Histogram: 16 0 0 0 0 0 0 0 0 0
FullNghs:  18893 ave 21009 max 17709 min
Histogram: 2 3 2 3 2 2 1 0 0 1

Total # of neighbors = 302288
Ave neighs/atom = 302.288
Neighbor list builds = 1000
Dangerous builds not checked
Setting up Verlet run ...
  Unit style    : real
  Current step  : 1000
  Time step     : 1
Per MPI rank memory allocation (min/avg/max) = 3.768 | 4.275 | 4.579 Mbytes
Step Temp E_pair E_mol TotEng Press Volume Lx Ly Lz S/CPU 
    1000    327.85828   -10361.797            0   -9385.4908    2016.0386    781.64401    9.2116268    9.2116268    9.2116268            0 
    1100    328.61563   -10384.299            0   -9405.7378     19664.79    782.40091    9.2145992    9.2145992    9.2145992    55.457313 
    1200    317.84266   -10371.511            0   -9425.0299    14752.733    784.05658    9.2210944    9.2210944    9.2210944    34.417094 
    1300    323.12408   -10404.034            0   -9441.8257   -11609.519     786.0397    9.2288622    9.2288622    9.2288622    46.995433 
    1400    305.33712    -10367.88            0   -9458.6383   -14372.009    787.34179    9.2339553    9.2339553    9.2339553     37.17652 
    1500    303.81392    -10380.01            0   -9475.3036   -13376.539    788.00781    9.2365582    9.2365582    9.2365582    48.824536 
    1600    320.67818   -10446.261            0   -9491.3365   -1341.9753     788.2075    9.2373384    9.2373384    9.2373384    44.092129 
    1700    306.58787   -10417.764            0    -9504.798     4530.074    788.25065     9.237507     9.237507     9.237507    53.882305 
    1800      310.819   -10445.049            0   -9519.4834   -5089.6631    788.25978    9.2375426    9.2375426    9.2375426    45.172995 
    1900    311.04794   -10459.487            0   -9533.2392    -5579.419    788.27075    9.2375855    9.2375855    9.2375855    46.939852 
    2000    300.48727   -10440.138            0   -9545.3379    5654.1991    788.48457    9.2384207    9.2384207    9.2384207    50.302177 
Loop time of 22.0306 on 16 procs for 1000 steps with 1000 atoms

Performance: 3.922 ns/day, 6.120 hours/ns, 45.391 timesteps/s
94.7% CPU use with 16 MPI tasks x no OpenMP threads

MPI task timing breakdown:
Section |  min time  |  avg time  |  max time  |%varavg| %total
---------------------------------------------------------------
Pair    | 2.3045     | 2.4025     | 2.5475     |   4.8 | 10.91
Neigh   | 0.76739    | 0.79791    | 0.86462    |   2.7 |  3.62
Comm    | 0.85109    | 1.0231     | 1.1448     |   9.5 |  4.64
Output  | 11.886     | 12.256     | 17.743     |  40.5 | 55.63
Modify  | 0.055146   | 5.5428     | 5.9126     |  60.2 | 25.16
Other   |            | 0.00828    |            |       |  0.04

Nlocal:    62.5 ave 68 max 58 min
Histogram: 1 0 3 3 0 4 2 1 1 1
Nghost:    1852.94 ave 1872 max 1827 min
Histogram: 1 1 2 1 1 2 2 1 3 2
Neighs:    0 ave 0 max 0 min
Histogram: 16 0 0 0 0 0 0 0 0 0
FullNghs:  18732.4 ave 20523 max 17082 min
Histogram: 1 1 2 2 3 3 1 1 1 1

Total # of neighbors = 299718
Ave neighs/atom = 299.718
Neighbor list builds = 1000
Dangerous builds not checked
Setting up Verlet run ...
  Unit style    : real
  Current step  : 2000
  Time step     : 1
Per MPI rank memory allocation (min/avg/max) = 3.769 | 4.427 | 4.579 Mbytes
Step Temp E_pair E_mol TotEng Press Volume Lx Ly Lz S/CPU 
    2000    300.48727   -10440.138            0   -9545.3379    5654.1991    788.48457    9.2384207    9.2384207    9.2384207            0 
    2100    302.52617   -10460.009            0   -9559.1379    10177.202    788.79307    9.2396253    9.2396253    9.2396253    44.099612 
    2200    299.34252   -10462.457            0   -9571.0665   -6897.0131    789.37201    9.2418853    9.2418853    9.2418853    52.678835 
    2300    301.40316   -10481.576            0   -9584.0493    -7141.328    789.73833    9.2433147    9.2433147    9.2433147    36.999059 
    2400    298.19369   -10484.927            0   -9596.9572   -9502.0836    789.77485    9.2434572    9.2434572    9.2434572    50.608089 
    2500    299.15101   -10496.812            0   -9605.9915   -9204.6585    789.15852    9.2410521    9.2410521    9.2410521    44.497836 
    2600    299.37829   -10506.419            0   -9614.9218   -25298.305    787.73687    9.2354995    9.2354995    9.2354995     51.07319 
    2700    302.95595   -10524.435            0   -9622.2837   -9348.6911    785.46071    9.2265957    9.2265957    9.2265957    42.940138 
    2800    293.86523   -10504.728            0   -9629.6477   -14005.262    782.89842    9.2165519    9.2165519    9.2165519    44.925297 
    2900    299.33327   -10527.531            0   -9636.1673    8657.5701    780.55683     9.207354     9.207354     9.207354    45.702371 
    3000    297.73625   -10529.293            0   -9642.6848    10147.907    778.76746    9.2003129    9.2003129    9.2003129     51.04987 
Loop time of 21.7516 on 16 procs for 1000 steps with 1000 atoms

Performance: 3.972 ns/day, 6.042 hours/ns, 45.974 timesteps/s
94.7% CPU use with 16 MPI tasks x no OpenMP threads

MPI task timing breakdown:
Section |  min time  |  avg time  |  max time  |%varavg| %total
---------------------------------------------------------------
Pair    | 2.1797     | 2.3702     | 2.5915     |   6.9 | 10.90
Neigh   | 0.76017    | 0.79382    | 0.85079    |   2.4 |  3.65
Comm    | 0.77445    | 1.0452     | 1.2365     |  12.2 |  4.81
Output  | 10.897     | 11.31      | 17.458     |  47.2 | 52.00
Modify  | 0.068008   | 6.224      | 6.6386     |  63.7 | 28.61
Other   |            | 0.008256   |            |       |  0.04

Nlocal:    62.5 ave 66 max 56 min
Histogram: 1 0 0 1 1 1 3 3 3 3
Nghost:    1864.19 ave 1879 max 1851 min
Histogram: 2 1 2 3 0 2 2 2 1 1
Neighs:    0 ave 0 max 0 min
Histogram: 16 0 0 0 0 0 0 0 0 0
FullNghs:  18956.9 ave 20086 max 16835 min
Histogram: 1 0 1 0 2 1 3 4 2 2

Total # of neighbors = 303310
Ave neighs/atom = 303.31
Neighbor list builds = 1000
Dangerous builds not checked
Setting up Verlet run ...
  Unit style    : real
  Current step  : 3000
  Time step     : 1
Per MPI rank memory allocation (min/avg/max) = 4.577 | 4.578 | 4.579 Mbytes
Step Temp E_pair E_mol TotEng Press Volume Lx Ly Lz S/CPU 
    3000    297.73625   -10529.293            0   -9642.6848    10147.907    778.76746    9.2003129    9.2003129    9.2003129            0 
    3100    305.63538   -10559.089            0    -9648.959    12739.705      777.409    9.1949602    9.1949602    9.1949602    47.567417 
    3200    288.17598   -10511.913            0   -9653.7737   -8550.8262    776.31104    9.1906294    9.1906294    9.1906294    46.817961 
    3300    287.08497   -10514.109            0   -9659.2188    10126.611    775.35347     9.186849     9.186849     9.186849    51.627213 
    3400    293.71501    -10537.01            0   -9662.3764   -2052.3313    775.12895    9.1859622    9.1859622    9.1859622    44.914088 
    3500    291.66754   -10532.813            0   -9664.2771    17132.008    775.29294      9.18661      9.18661      9.18661    47.960159 
    3600    295.17335   -10543.236            0   -9664.2598    15265.879    776.23157    9.1903158    9.1903158    9.1903158    44.603119 
    3700    293.29573    -10537.44            0    -9664.055   -4172.8857     778.0705    9.1975675    9.1975675    9.1975675    43.322986 
    3800    292.75785    -10531.75            0   -9659.9672   -9001.7113    780.18992    9.2059111    9.2059111    9.2059111     53.23046 
    3900    290.82216   -10520.485            0   -9654.4667    1791.6895    782.31777    9.2142728    9.2142728    9.2142728    42.205251 
    4000    292.28509   -10517.072            0   -9646.6965   -13815.067    784.28615    9.2219943    9.2219943    9.2219943    54.706512 
Loop time of 21.1129 on 16 procs for 1000 steps with 1000 atoms

Performance: 4.092 ns/day, 5.865 hours/ns, 47.364 timesteps/s
94.7% CPU use with 16 MPI tasks x no OpenMP threads

MPI task timing breakdown:
Section |  min time  |  avg time  |  max time  |%varavg| %total
---------------------------------------------------------------
Pair    | 2.2597     | 2.4079     | 2.6205     |   5.5 | 11.40
Neigh   | 0.7648     | 0.79285    | 0.84902    |   2.2 |  3.76
Comm    | 0.82523    | 1.0931     | 1.2325     |   9.6 |  5.18
Output  | 11.409     | 11.747     | 16.771     |  37.8 | 55.64
Modify  | 0.038667   | 5.0634     | 5.4023     |  57.7 | 23.98
Other   |            | 0.008263   |            |       |  0.04

Nlocal:    62.5 ave 70 max 58 min
Histogram: 4 1 3 1 0 4 1 1 0 1
Nghost:    1866.5 ave 1876 max 1859 min
Histogram: 2 2 2 1 2 2 3 1 0 1
Neighs:    0 ave 0 max 0 min
Histogram: 16 0 0 0 0 0 0 0 0 0
FullNghs:  18804.5 ave 21030 max 17437 min
Histogram: 3 2 3 1 1 2 2 1 0 1

Total # of neighbors = 300872
Ave neighs/atom = 300.872
Neighbor list builds = 1000
Dangerous builds not checked
Setting up Verlet run ...
  Unit style    : real
  Current step  : 4000
  Time step     : 1
Per MPI rank memory allocation (min/avg/max) = 4.578 | 4.578 | 4.579 Mbytes
Step Temp E_pair E_mol TotEng Press Volume Lx Ly Lz S/CPU 
    4000    292.28509   -10517.072            0   -9646.6965   -13815.067    784.28615    9.2219943    9.2219943    9.2219943            0 
    4100    296.65185   -10520.173            0   -9636.7947   -19540.765    785.56169     9.226991     9.226991     9.226991    42.248749 
    4200    304.91717    -10534.06            0   -9626.0688   -1918.8777    786.01491    9.2287651    9.2287651    9.2287651    57.553818 
    4300    303.81282    -10520.67            0   -9615.9677    1699.7023    785.93128    9.2284378    9.2284378    9.2284378     52.11062 
    4400    294.16447   -10483.223            0    -9607.251   -12432.578    785.37768    9.2262705    9.2262705    9.2262705    44.613649 
    4500    305.66962   -10510.765            0   -9600.5332    -149.5364    784.11821     9.221336     9.221336     9.221336    55.034062 
    4600    294.92349   -10472.329            0   -9594.0967   -5396.0195    782.74832    9.2159629    9.2159629    9.2159629    42.607022 
    4700    309.02638   -10509.422            0   -9589.1939   -2168.3719    781.77374    9.2121364    9.2121364    9.2121364    49.058893 
    4800    291.64035   -10451.503            0   -9583.0476    1573.9596    781.10733    9.2095181    9.2095181    9.2095181    42.813289 
    4900    303.45748   -10483.015            0   -9579.3706    2574.6194    780.44313    9.2069069    9.2069069    9.2069069    55.665786 
    5000    297.83405   -10461.567            0   -9574.6685     3791.066    780.10857    9.2055912    9.2055912    9.2055912    51.284031 
Loop time of 20.5495 on 16 procs for 1000 steps with 1000 atoms

Performance: 4.204 ns/day, 5.708 hours/ns, 48.663 timesteps/s
94.8% CPU use with 16 MPI tasks x no OpenMP threads

MPI task timing breakdown:
Section |  min time  |  avg time  |  max time  |%varavg| %total
---------------------------------------------------------------
Pair    | 2.266      | 2.388      | 2.6041     |   6.0 | 11.62
Neigh   | 0.76238    | 0.79197    | 0.84783    |   3.0 |  3.85
Comm    | 0.77366    | 1.0449     | 1.1965     |  11.5 |  5.08
Output  | 10.187     | 10.571     | 16.271     |  45.3 | 51.44
Modify  | 0.045218   | 5.7457     | 6.1296     |  61.4 | 27.96
Other   |            | 0.008289   |            |       |  0.04

Nlocal:    62.5 ave 67 max 56 min
Histogram: 2 0 1 0 2 1 4 1 3 2
Nghost:    1860.12 ave 1880 max 1845 min
Histogram: 2 1 1 2 4 3 1 0 1 1
Neighs:    0 ave 0 max 0 min
Histogram: 16 0 0 0 0 0 0 0 0 0
FullNghs:  18919.9 ave 20350 max 16809 min
Histogram: 2 0 1 0 2 0 6 1 3 1

Total # of neighbors = 302718
Ave neighs/atom = 302.718
Neighbor list builds = 1000
Dangerous builds not checked
Setting up Verlet run ...
  Unit style    : real
  Current step  : 5000
  Time step     : 1
Per MPI rank memory allocation (min/avg/max) = 4.578 | 4.578 | 4.579 Mbytes
Step Temp E_pair E_mol TotEng Press Volume Lx Ly Lz S/CPU 
    5000    297.83405   -10461.567            0   -9574.6685     3791.066    780.10857    9.2055912    9.2055912    9.2055912            0 
    5100    312.68747   -10503.632            0   -9572.5019     3588.042    779.94014    9.2049286    9.2049286    9.2049286    47.111072 
    5200    300.39908   -10463.819            0   -9569.2823    11435.038    779.94804    9.2049597    9.2049597    9.2049597     54.19748 
    5300    302.56565   -10468.148            0   -9567.1595   -6192.4948    780.42124    9.2068209    9.2068209    9.2068209    41.700481 
    5400    296.91882   -10450.237            0   -9566.0635    4003.7833    781.16017    9.2097258    9.2097258    9.2097258    56.676604 
    5500    306.66238   -10477.302            0   -9564.1135    8667.1301    781.92061    9.2127132    9.2127132    9.2127132    64.522541 
    5600    309.76449   -10483.554            0   -9561.1281   -4125.6501    782.80132    9.2161708    9.2161708    9.2161708    52.687119 
    5700    297.64334   -10444.742            0   -9558.4112   -3797.5903    783.62545     9.219404     9.219404     9.219404    59.672444 
    5800    301.52827   -10452.598            0   -9554.6985   -9326.0655    784.00379    9.2208874    9.2208874    9.2208874    52.281241 
    5900     319.0534   -10499.651            0   -9549.5644   -2276.4783    783.87848    9.2203961    9.2203961    9.2203961    44.240716 
    6000     305.6602   -10450.579            0   -9540.3755     8049.155    783.58609    9.2192496    9.2192496    9.2192496    53.113806 
Loop time of 19.3097 on 16 procs for 1000 steps with 1000 atoms

Performance: 4.474 ns/day, 5.364 hours/ns, 51.787 timesteps/s
94.8% CPU use with 16 MPI tasks x no OpenMP threads

MPI task timing breakdown:
Section |  min time  |  avg time  |  max time  |%varavg| %total
---------------------------------------------------------------
Pair    | 2.3137     | 2.4143     | 2.6408     |   5.2 | 12.50
Neigh   | 0.76296    | 0.79618    | 0.8647     |   3.0 |  4.12
Comm    | 0.74362    | 1.0383     | 1.172      |  10.1 |  5.38
Output  | 9.8919     | 10.214     | 15.002     |  38.7 | 52.90
Modify  | 0.050381   | 4.8382     | 5.1608     |  56.2 | 25.06
Other   |            | 0.008255   |            |       |  0.04

Nlocal:    62.5 ave 70 max 58 min
Histogram: 4 1 1 4 1 2 1 0 1 1
Nghost:    1847.31 ave 1879 max 1822 min
Histogram: 2 2 2 0 4 2 0 1 2 1
Neighs:    0 ave 0 max 0 min
Histogram: 16 0 0 0 0 0 0 0 0 0
FullNghs:  18834.2 ave 21321 max 17238 min
Histogram: 2 3 2 2 3 0 2 1 0 1

Total # of neighbors = 301348
Ave neighs/atom = 301.348
Neighbor list builds = 1000
Dangerous builds not checked
Setting up Verlet run ...
  Unit style    : real
  Current step  : 6000
  Time step     : 1
Per MPI rank memory allocation (min/avg/max) = 4.578 | 4.578 | 4.579 Mbytes
Step Temp E_pair E_mol TotEng Press Volume Lx Ly Lz S/CPU 
    6000     305.6602   -10450.579            0   -9540.3755     8049.155    783.58609    9.2192496    9.2192496    9.2192496            0 
    6100    307.01949   -10445.871            0   -9531.6191    1117.4334    783.10771    9.2173731    9.2173731    9.2173731    39.255687 
    6200    312.32076   -10452.963            0    -9522.925    4998.8531    782.27583    9.2141081    9.2141081    9.2141081    53.411795 
    6300    307.86761   -10433.988            0   -9517.2103    3780.9676    781.20257    9.2098924    9.2098924    9.2098924     46.34026 
    6400    312.72067   -10445.634            0   -9514.4056    11823.152    780.16213    9.2058018    9.2058018    9.2058018    53.161672 
    6500    302.94709   -10415.546            0   -9513.4217    11384.796    779.73755    9.2041315    9.2041315    9.2041315    48.302689 
    6600    304.05893   -10421.486            0   -9516.0505   -1908.8538    780.04154    9.2053275    9.2053275    9.2053275    47.434033 
    6700    311.08939   -10449.895            0   -9523.5243     16027.02    780.84989    9.2085062    9.2085062    9.2085062    54.620773 
    6800    314.04587   -10468.813            0   -9533.6379    9997.6016    782.28421     9.214141     9.214141     9.214141    46.445552 
    6900    292.66718   -10416.146            0   -9544.6328     1104.961    784.01503    9.2209315    9.2209315    9.2209315    47.619252 
    7000    300.58166    -10454.18            0   -9559.0991    1043.8346     786.0588    9.2289369    9.2289369    9.2289369     46.67307 
Loop time of 20.8636 on 16 procs for 1000 steps with 1000 atoms

Performance: 4.141 ns/day, 5.795 hours/ns, 47.930 timesteps/s
94.7% CPU use with 16 MPI tasks x no OpenMP threads

MPI task timing breakdown:
Section |  min time  |  avg time  |  max time  |%varavg| %total
---------------------------------------------------------------
Pair    | 2.3003     | 2.4575     | 2.5918     |   4.8 | 11.78
Neigh   | 0.77426    | 0.80908    | 0.84863    |   2.3 |  3.88
Comm    | 0.86446    | 1.0388     | 1.2282     |   9.2 |  4.98
Output  | 11.197     | 11.53      | 16.467     |  37.5 | 55.26
Modify  | 0.083481   | 5.0201     | 5.3532     |  56.9 | 24.06
Other   |            | 0.00835    |            |       |  0.04

Nlocal:    62.5 ave 69 max 59 min
Histogram: 3 2 0 3 5 0 0 1 1 1
Nghost:    1861.56 ave 1889 max 1839 min
Histogram: 1 1 2 3 2 2 3 1 0 1
Neighs:    0 ave 0 max 0 min
Histogram: 16 0 0 0 0 0 0 0 0 0
FullNghs:  18784.5 ave 20799 max 17728 min
Histogram: 5 0 1 6 1 0 1 0 1 1

Total # of neighbors = 300552
Ave neighs/atom = 300.552
Neighbor list builds = 1000
Dangerous builds not checked
Setting up Verlet run ...
  Unit style    : real
  Current step  : 7000
  Time step     : 1
Per MPI rank memory allocation (min/avg/max) = 4.578 | 4.578 | 4.579 Mbytes
Step Temp E_pair E_mol TotEng Press Volume Lx Ly Lz S/CPU 
    7000    300.58166    -10454.18            0   -9559.0991    1043.8346     786.0588    9.2289369    9.2289369    9.2289369            0 
    7100    299.80282   -10463.476            0   -9570.7141   -4246.4835    787.93222    9.2362629    9.2362629    9.2362629    54.937734 
    7200    299.64022   -10473.566            0   -9581.2883   -6814.0983    789.61084    9.2428173    9.2428173    9.2428173    50.091453 
    7300    304.55394   -10495.486            0   -9588.5762    -478.4919    791.02304    9.2483242    9.2483242    9.2483242    41.921061 
    7400    310.02105   -10519.553            0   -9596.3636   -1089.7871    791.89762    9.2517313    9.2517313    9.2517313    33.839494 
    7500    297.96071   -10488.428            0   -9601.1521   -5543.9725    792.48552    9.2540203    9.2540203    9.2540203    40.834511 
    7600    307.73804   -10522.836            0   -9606.4442    2121.0938     792.5785    9.2543822    9.2543822    9.2543822    51.316864 
    7700    297.11468   -10494.927            0     -9610.17   -14296.544    792.22846    9.2530195    9.2530195    9.2530195    45.479267 
    7800    304.44496   -10519.129            0   -9612.5439    6054.0256    791.26212    9.2492558    9.2492558    9.2492558     43.49139 
    7900    294.13666   -10489.619            0   -9613.7306    13704.087    790.07673    9.2446348    9.2446348    9.2446348    44.263331 
    8000    296.87014   -10497.923            0   -9613.8939    20.608025    789.26545    9.2414694    9.2414694    9.2414694    48.313941 
Loop time of 22.3819 on 16 procs for 1000 steps with 1000 atoms

Performance: 3.860 ns/day, 6.217 hours/ns, 44.679 timesteps/s
94.6% CPU use with 16 MPI tasks x no OpenMP threads

MPI task timing breakdown:
Section |  min time  |  avg time  |  max time  |%varavg| %total
---------------------------------------------------------------
Pair    | 2.2957     | 2.3853     | 2.5287     |   5.9 | 10.66
Neigh   | 0.77538    | 0.80229    | 0.85112    |   2.3 |  3.58
Comm    | 0.81225    | 1.0072     | 1.1133     |  10.9 |  4.50
Output  | 12.358     | 12.724     | 18.11      |  39.0 | 56.85
Modify  | 0.071056   | 5.4547     | 5.8207     |  59.5 | 24.37
Other   |            | 0.008252   |            |       |  0.04

Nlocal:    62.5 ave 68 max 59 min
Histogram: 3 0 3 1 4 2 2 0 0 1
Nghost:    1849.06 ave 1855 max 1840 min
Histogram: 2 0 1 1 2 1 1 2 2 4
Neighs:    0 ave 0 max 0 min
Histogram: 16 0 0 0 0 0 0 0 0 0
FullNghs:  18718.5 ave 20459 max 17562 min
Histogram: 3 0 3 1 4 2 2 0 0 1

Total # of neighbors = 299496
Ave neighs/atom = 299.496
Neighbor list builds = 1000
Dangerous builds not checked
Setting up Verlet run ...
  Unit style    : real
  Current step  : 8000
  Time step     : 1
Per MPI rank memory allocation (min/avg/max) = 4.578 | 4.579 | 4.579 Mbytes
Step Temp E_pair E_mol TotEng Press Volume Lx Ly Lz S/CPU 
    8000    296.87014   -10497.923            0   -9613.8939    20.608025    789.26545    9.2414694    9.2414694    9.2414694            0 
    8100    301.34352   -10511.049            0    -9613.699   -3354.5234     788.3825     9.238022     9.238022     9.238022    49.076603 
    8200    297.20879   -10496.875            0   -9611.8375   -4511.2696    787.15559    9.2332273    9.2332273    9.2332273    58.035236 
    8300    287.79401    -10464.05            0   -9607.0484     8911.018    785.64514    9.2273178    9.2273178    9.2273178     42.92806 
    8400     307.8058   -10518.398            0   -9601.8048    8534.8189    784.34692    9.2222324    9.2222324    9.2222324     35.94518 
    8500    300.38446   -10489.461            0   -9594.9674    18062.081    783.43008    9.2186377    9.2186377    9.2186377    55.127008 
    8600    295.38194   -10467.464            0   -9587.8674    12678.428    783.27847     9.218043     9.218043     9.218043    44.234698 
    8700    303.77521   -10484.722            0   -9580.1316    8717.9031    783.23653    9.2178785    9.2178785    9.2178785    57.011668 
    8800    300.73811   -10466.286            0   -9570.7395    3296.2755    783.45586    9.2187388    9.2187388    9.2187388    40.546016 
    8900    305.04337   -10470.228            0   -9561.8611     21473.59    784.03118    9.2209948    9.2209948    9.2209948     51.76379 
    9000    298.07879   -10438.133            0   -9550.5053    2678.6805     785.3369    9.2261109    9.2261109    9.2261109     55.39816 
Loop time of 20.9042 on 16 procs for 1000 steps with 1000 atoms

Performance: 4.133 ns/day, 5.807 hours/ns, 47.837 timesteps/s
94.8% CPU use with 16 MPI tasks x no OpenMP threads

MPI task timing breakdown:
Section |  min time  |  avg time  |  max time  |%varavg| %total
---------------------------------------------------------------
Pair    | 2.3472     | 2.4733     | 2.6544     |   5.2 | 11.83
Neigh   | 0.7875     | 0.81859    | 0.86891    |   2.3 |  3.92
Comm    | 0.74295    | 0.97388    | 1.1282     |  10.1 |  4.66
Output  | 11.354     | 11.683     | 16.572     |  36.9 | 55.89
Modify  | 0.057572   | 4.947      | 5.2765     |  56.8 | 23.67
Other   |            | 0.008336   |            |       |  0.04

Nlocal:    62.5 ave 70 max 58 min
Histogram: 3 2 2 3 1 1 2 0 1 1
Nghost:    1852.69 ave 1881 max 1828 min
Histogram: 2 0 2 3 4 1 1 0 1 2
Neighs:    0 ave 0 max 0 min
Histogram: 16 0 0 0 0 0 0 0 0 0
FullNghs:  18792.4 ave 20926 max 17277 min
Histogram: 2 2 3 3 1 1 0 2 0 2

Total # of neighbors = 300678
Ave neighs/atom = 300.678
Neighbor list builds = 1000
Dangerous builds not checked
Setting up Verlet run ...
  Unit style    : real
  Current step  : 9000
  Time step     : 1
Per MPI rank memory allocation (min/avg/max) = 4.578 | 4.579 | 4.579 Mbytes
Step Temp E_pair E_mol TotEng Press Volume Lx Ly Lz S/CPU 
    9000    298.07879   -10438.133            0   -9550.5053    2678.6805     785.3369    9.2261109    9.2261109    9.2261109            0 
    9100    315.16371   -10479.156            0   -9540.6528    -1057.789    787.08015    9.2329323    9.2329323    9.2329323      54.7593 
    9200    309.53673   -10450.744            0   -9528.9968   -10125.918    788.90987    9.2400814    9.2400814    9.2400814     54.36718 
    9300    315.56021   -10460.541            0   -9520.8562    4625.0853    790.34097    9.2456652    9.2456652    9.2456652    41.982075 
    9400     311.4052   -10439.222            0   -9511.9101   -13171.539    791.75387    9.2511715    9.2511715    9.2511715    42.521556 
    9500     306.6367   -10418.459            0   -9505.3472    -24409.16    792.82672    9.2553481    9.2553481    9.2553481    51.433676 
    9600    317.27068   -10448.054            0   -9503.2764   -3354.5859    793.11806    9.2564817    9.2564817    9.2564817    54.791723 
    9700    320.09869   -10455.155            0   -9501.9562    -16361.79    792.80567    9.2552662    9.2552662    9.2552662    39.547512 
    9800     306.3145   -10414.596            0   -9502.4435    4828.0982    791.68188    9.2508911    9.2508911    9.2508911    51.671673 
    9900     301.3358   -10406.676            0   -9509.3497   -9740.0564    789.99958    9.2443338    9.2443338    9.2443338    54.811333 
   10000    304.30539   -10427.943            0   -9521.7732   -1981.4182    787.57413    9.2348635    9.2348635    9.2348635    48.412446 
Loop time of 20.5225 on 16 procs for 1000 steps with 1000 atoms

Performance: 4.210 ns/day, 5.701 hours/ns, 48.727 timesteps/s
94.7% CPU use with 16 MPI tasks x no OpenMP threads

MPI task timing breakdown:
Section |  min time  |  avg time  |  max time  |%varavg| %total
---------------------------------------------------------------
Pair    | 2.2856     | 2.3836     | 2.5309     |   4.7 | 11.61
Neigh   | 0.76632    | 0.79753    | 0.84373    |   2.2 |  3.89
Comm    | 0.82707    | 1.0156     | 1.1446     |   8.7 |  4.95
Output  | 10.853     | 11.194     | 16.264     |  39.1 | 54.55
Modify  | 0.048116   | 5.123      | 5.465      |  57.9 | 24.96
Other   |            | 0.008397   |            |       |  0.04

Nlocal:    62.5 ave 67 max 58 min
Histogram: 2 1 2 1 2 2 1 1 3 1
Nghost:    1853.62 ave 1871 max 1836 min
Histogram: 1 1 0 5 2 1 2 1 0 3
Neighs:    0 ave 0 max 0 min
Histogram: 16 0 0 0 0 0 0 0 0 0
FullNghs:  18753.9 ave 20362 max 17126 min
Histogram: 2 0 2 2 2 2 1 3 1 1

Total # of neighbors = 300062
Ave neighs/atom = 300.062
Neighbor list builds = 1000
Dangerous builds not checked
Setting up Verlet run ...
  Unit style    : real
  Current step  : 10000
  Time step     : 1
Per MPI rank memory allocation (min/avg/max) = 4.578 | 4.579 | 4.579 Mbytes
Step Temp E_pair E_mol TotEng Press Volume Lx Ly Lz S/CPU 
   10000    304.30539   -10427.943            0   -9521.7732   -1981.4182    787.57413    9.2348635    9.2348635    9.2348635            0 
   10100    310.47162   -10466.951            0     -9542.42    6909.2437     785.0858    9.2251274    9.2251274    9.2251274    57.747124 
   10200    301.61024   -10461.899            0   -9563.7551    -1032.248    782.76483    9.2160276    9.2160276    9.2160276    41.377635 
   10300    309.66817   -10502.752            0   -9580.6135   -812.11846     780.7466    9.2081001    9.2081001    9.2081001     46.91272 
   10400    300.22856   -10486.673            0   -9592.6437    6026.8758    778.95682    9.2010586    9.2010586    9.2010586    50.640881 
   10500    301.26895   -10496.709            0   -9599.5811     10686.73    777.80479    9.1965204    9.1965204    9.1965204    59.524932 
   10600    300.12632   -10499.389            0   -9605.6643    4199.8032     777.3204    9.1946109    9.1946109    9.1946109    56.452902 
   10700    303.67431   -10513.178            0   -9608.8883    16005.286    777.09888    9.1937374    9.1937374    9.1937374    55.416738 
   10800    302.94026   -10514.537            0   -9612.4326   -5177.6295    777.56116    9.1955601    9.1955601    9.1955601    62.371317 
   10900    303.70729   -10520.538            0   -9616.1496    663.10945    778.23602    9.1982196    9.1982196    9.1982196     49.35365 
   11000    299.74541   -10512.593            0   -9620.0027    1952.3095    779.35999    9.2026457    9.2026457    9.2026457    54.320962 
Loop time of 18.9811 on 16 procs for 1000 steps with 1000 atoms

Performance: 4.552 ns/day, 5.273 hours/ns, 52.684 timesteps/s
94.9% CPU use with 16 MPI tasks x no OpenMP threads

MPI task timing breakdown:
Section |  min time  |  avg time  |  max time  |%varavg| %total
---------------------------------------------------------------
Pair    | 2.3421     | 2.452      | 2.5455     |   3.7 | 12.92
Neigh   | 0.77931    | 0.80487    | 0.84767    |   2.0 |  4.24
Comm    | 0.93785    | 1.0564     | 1.1914     |   7.1 |  5.57
Output  | 9.9076     | 10.205     | 14.606     |  35.6 | 53.76
Modify  | 0.052782   | 4.4549     | 4.7525     |  53.9 | 23.47
Other   |            | 0.008327   |            |       |  0.04

Nlocal:    62.5 ave 68 max 59 min
Histogram: 1 4 3 2 1 1 1 1 0 2
Nghost:    1864.81 ave 1890 max 1835 min
Histogram: 1 1 0 2 2 3 3 2 0 2
Neighs:    0 ave 0 max 0 min
Histogram: 16 0 0 0 0 0 0 0 0 0
FullNghs:  18930.8 ave 20698 max 17811 min
Histogram: 1 4 3 2 2 0 1 1 0 2

Total # of neighbors = 302892
Ave neighs/atom = 302.892
Neighbor list builds = 1000
Dangerous builds not checked
Setting up Verlet run ...
  Unit style    : real
  Current step  : 11000
  Time step     : 1
Per MPI rank memory allocation (min/avg/max) = 4.578 | 4.579 | 4.579 Mbytes
Step Temp E_pair E_mol TotEng Press Volume Lx Ly Lz S/CPU 
   11000    299.74541   -10512.593            0   -9620.0027    1952.3095    779.35999    9.2026457    9.2026457    9.2026457            0 
   11100    305.26081   -10534.542            0   -9625.5274    5177.2491    780.67663    9.2078251    9.2078251    9.2078251    54.477872 
   11200     298.7744   -10520.049            0   -9630.3502    -1876.476    782.04477    9.2132008    9.2132008    9.2132008     44.09645 
   11300    297.73663   -10522.734            0   -9636.1248   -17888.626    783.71477    9.2197542    9.2197542    9.2197542    50.978288 
   11400     300.6494   -10536.389            0   -9641.1061   -5978.0011    785.26066    9.2258123    9.2258123    9.2258123    43.256631 
   11500    281.83181   -10483.457            0   -9644.2102   -1884.7218    786.37921    9.2301907    9.2301907    9.2301907    39.687226 
   11600    296.59765   -10530.867            0   -9647.6503   -6639.3489    786.70009     9.231446     9.231446     9.231446    45.515156 
   11700    291.28436   -10516.189            0   -9648.7938   -11019.871    786.30235      9.22989      9.22989      9.22989    47.802039 
   11800    298.47216    -10539.95            0   -9651.1506    -9875.289     785.0713    9.2250706    9.2250706    9.2250706     55.83219 
   11900    295.98689   -10533.255            0   -9651.8571    4961.5042    783.11214    9.2173905    9.2173905    9.2173905    45.541845 
   12000    306.97654   -10567.553            0   -9653.4297     11238.02    780.82562    9.2084108    9.2084108    9.2084108    54.590981 
Loop time of 21.0042 on 16 procs for 1000 steps with 1000 atoms

Performance: 4.113 ns/day, 5.834 hours/ns, 47.610 timesteps/s
94.8% CPU use with 16 MPI tasks x no OpenMP threads

MPI task timing breakdown:
Section |  min time  |  avg time  |  max time  |%varavg| %total
---------------------------------------------------------------
Pair    | 2.2859     | 2.4432     | 2.6287     |   5.4 | 11.63
Neigh   | 0.78039    | 0.8096     | 0.86159    |   2.2 |  3.85
Comm    | 0.77683    | 1.0144     | 1.201      |  10.1 |  4.83
Output  | 11.41      | 11.742     | 16.663     |  37.1 | 55.90
Modify  | 0.065946   | 4.9869     | 5.3185     |  56.9 | 23.74
Other   |            | 0.008331   |            |       |  0.04

Nlocal:    62.5 ave 65 max 57 min
Histogram: 1 0 0 1 0 1 4 4 3 2
Nghost:    1869 ave 1891 max 1850 min
Histogram: 4 2 1 0 1 0 4 0 2 2
Neighs:    0 ave 0 max 0 min
Histogram: 16 0 0 0 0 0 0 0 0 0
FullNghs:  18902.2 ave 19933 max 17079 min
Histogram: 1 0 0 1 1 3 2 5 2 1

Total # of neighbors = 302436
Ave neighs/atom = 302.436
Neighbor list builds = 1000
Dangerous builds not checked
Setting up Verlet run ...
  Unit style    : real
  Current step  : 12000
  Time step     : 1
Per MPI rank memory allocation (min/avg/max) = 4.578 | 4.579 | 4.579 Mbytes
Step Temp E_pair E_mol TotEng Press Volume Lx Ly Lz S/CPU 
   12000    306.97654   -10567.553            0   -9653.4297     11238.02    780.82562    9.2084108    9.2084108    9.2084108            0 
   12100    296.42135   -10534.763            0    -9652.071   -4598.0855    778.61335     9.199706     9.199706     9.199706    38.275333 
   12200    278.67236   -10478.224            0   -9648.3854     12967.33    776.55707    9.1916002    9.1916002    9.1916002    43.488806 
   12300    301.25119   -10540.396            0   -9643.3209    21042.996    775.10123    9.1858527    9.1858527    9.1858527    50.373545 
   12400    292.62251   -10505.136            0   -9633.7557    14833.987    774.57406    9.1837697    9.1837697    9.1837697    47.897116 
   12500    304.60936   -10530.452            0   -9623.3775    12729.005     775.1041     9.185864     9.185864     9.185864    45.325121 
   12600    303.61429   -10514.862            0   -9610.7508    4286.6493    776.76733    9.1924297    9.1924297    9.1924297    43.519633 
   12700    306.94476   -10513.156            0   -9599.1274    16827.664    779.26422    9.2022688    9.2022688    9.2022688    43.595588 
   12800    303.88504   -10492.419            0   -9587.5009   -9781.7129    782.52393    9.2150821    9.2150821    9.2150821     47.24831 
   12900    300.15316   -10472.728            0   -9578.9227   -11804.258    785.96784    9.2285809    9.2285809    9.2285809    40.528254 
   13000    303.25742   -10474.255            0   -9571.2065   -27828.036    788.99517    9.2404144    9.2404144    9.2404144    50.695446 
Loop time of 22.3395 on 16 procs for 1000 steps with 1000 atoms

Performance: 3.868 ns/day, 6.205 hours/ns, 44.764 timesteps/s
94.7% CPU use with 16 MPI tasks x no OpenMP threads

MPI task timing breakdown:
Section |  min time  |  avg time  |  max time  |%varavg| %total
---------------------------------------------------------------
Pair    | 2.3413     | 2.4376     | 2.5764     |   3.7 | 10.91
Neigh   | 0.77231    | 0.79973    | 0.82723    |   1.9 |  3.58
Comm    | 0.86962    | 1.0364     | 1.1604     |   6.9 |  4.64
Output  | 12.044     | 12.419     | 17.997     |  40.9 | 55.59
Modify  | 0.060811   | 5.6379     | 6.0136     |  60.6 | 25.24
Other   |            | 0.00832    |            |       |  0.04

Nlocal:    62.5 ave 65 max 60 min
Histogram: 3 0 3 0 2 0 3 0 1 4
Nghost:    1855.38 ave 1863 max 1842 min
Histogram: 1 0 2 1 1 1 0 5 1 4
Neighs:    0 ave 0 max 0 min
Histogram: 16 0 0 0 0 0 0 0 0 0
FullNghs:  18715.5 ave 19658 max 17877 min
Histogram: 3 2 2 0 1 3 0 0 1 4

Total # of neighbors = 299448
Ave neighs/atom = 299.448
Neighbor list builds = 1000
Dangerous builds not checked
Setting up Verlet run ...
  Unit style    : real
  Current step  : 13000
  Time step     : 1
Per MPI rank memory allocation (min/avg/max) = 4.578 | 4.579 | 4.579 Mbytes
Step Temp E_pair E_mol TotEng Press Volume Lx Ly Lz S/CPU 
   13000    303.25742   -10474.255            0   -9571.2065   -27828.036    788.99517    9.2404144    9.2404144    9.2404144            0 
   13100    312.12708   -10495.922            0   -9566.4611   -6860.8712     790.9977    9.2482254    9.2482254    9.2482254    51.104379 
   13200    298.33522   -10451.733            0   -9563.3414   -9998.2736    792.52625    9.2541788    9.2541788    9.2541788    45.535615 
   13300      313.465   -10495.692            0   -9562.2468   -10954.408    793.57545    9.2582608    9.2582608    9.2582608    52.884177 
   13400    300.82481   -10455.786            0   -9559.9811   -3287.1727    793.85848    9.2593613    9.2593613    9.2593613    47.044351 
   13500    306.99392   -10474.876            0    -9560.701   -8063.2847    793.03685    9.2561658    9.2561658    9.2561658     54.75701 
   13600    306.85155   -10478.107            0   -9564.3553   -5009.4034    790.99996    9.2482342    9.2482342    9.2482342    46.150603 
   13700    294.29619   -10442.836            0   -9566.4718    -9636.843    788.00617    9.2365519    9.2365519    9.2365519    50.978764 
   13800    303.62397   -10474.294            0   -9570.1538   -7151.2356    784.02718    9.2209792    9.2209792    9.2209792    42.914926 
   13900    298.30386   -10462.407            0   -9574.1092    16577.136    779.75855    9.2042142    9.2042142    9.2042142    48.103748 
   14000    301.49666   -10474.733            0   -9576.9278    10382.569    776.10545     9.189818     9.189818     9.189818    42.057654 
Loop time of 20.9109 on 16 procs for 1000 steps with 1000 atoms

Performance: 4.132 ns/day, 5.809 hours/ns, 47.822 timesteps/s
94.8% CPU use with 16 MPI tasks x no OpenMP threads

MPI task timing breakdown:
Section |  min time  |  avg time  |  max time  |%varavg| %total
---------------------------------------------------------------
Pair    | 2.1894     | 2.3749     | 2.5464     |   5.2 | 11.36
Neigh   | 0.74965    | 0.79733    | 0.83646    |   2.7 |  3.81
Comm    | 0.83664    | 1.0477     | 1.2814     |   9.9 |  5.01
Output  | 11.059     | 11.41      | 16.631     |  39.9 | 54.57
Modify  | 0.051616   | 5.2723     | 5.6242     |  58.7 | 25.21
Other   |            | 0.008254   |            |       |  0.04

Nlocal:    62.5 ave 68 max 59 min
Histogram: 1 2 5 1 2 0 4 0 0 1
Nghost:    1853.69 ave 1864 max 1840 min
Histogram: 1 0 0 1 4 2 4 2 1 1
Neighs:    0 ave 0 max 0 min
Histogram: 16 0 0 0 0 0 0 0 0 0
FullNghs:  19030.4 ave 20834 max 17860 min
Histogram: 2 2 4 1 2 1 2 1 0 1

Total # of neighbors = 304486
Ave neighs/atom = 304.486
Neighbor list builds = 1000
Dangerous builds not checked
Setting up Verlet run ...
  Unit style    : real
  Current step  : 14000
  Time step     : 1
Per MPI rank memory allocation (min/avg/max) = 4.578 | 4.579 | 4.579 Mbytes
Step Temp E_pair E_mol TotEng Press Volume Lx Ly Lz S/CPU 
   14000    301.49666   -10474.733            0   -9576.9278    10382.569    776.10545     9.189818     9.189818     9.189818            0 
   14100    293.68838   -10453.178            0   -9578.6246    6981.2268    773.32812    9.1788428    9.1788428    9.1788428    33.911586 
   14200    302.54854   -10484.673            0   -9583.7355    15651.491    771.51571    9.1716666    9.1716666    9.1716666    56.524641 
   14300    308.52371   -10508.601            0     -9589.87    23574.991    770.81547     9.168891     9.168891     9.168891    44.582915 
   14400    300.82688   -10494.186            0   -9598.3751    16662.641    771.43063    9.1713294    9.1713294    9.1713294    49.439141 
   14500    306.53649   -10525.557            0   -9612.7441    11936.724    773.30032    9.1787329    9.1787329    9.1787329    40.881916 
   14600    296.32277   -10511.508            0   -9629.1098    16004.951    775.95134    9.1892097    9.1892097    9.1892097    44.459861 
   14700    299.75786   -10537.391            0   -9644.7637    1840.2787    779.42544    9.2029033    9.2029033    9.2029033    48.499169 
   14800    298.23677   -10545.459            0   -9657.3609   -10647.862    783.17619    9.2176417    9.2176417    9.2176417    54.882314 
   14900    289.75935   -10527.128            0   -9664.2738   -26765.753    786.37373    9.2301693    9.2301693    9.2301693    59.921777 
   15000    289.66927   -10530.749            0   -9668.1635   -21085.072    788.33185    9.2378241    9.2378241    9.2378241    39.311018 
Loop time of 21.7756 on 16 procs for 1000 steps with 1000 atoms

Performance: 3.968 ns/day, 6.049 hours/ns, 45.923 timesteps/s
94.7% CPU use with 16 MPI tasks x no OpenMP threads

MPI task timing breakdown:
Section |  min time  |  avg time  |  max time  |%varavg| %total
---------------------------------------------------------------
Pair    | 2.271      | 2.4309     | 2.5829     |   5.3 | 11.16
Neigh   | 0.75841    | 0.79413    | 0.83652    |   2.5 |  3.65
Comm    | 0.88638    | 1.081      | 1.2654     |   9.9 |  4.96
Output  | 12.088     | 12.425     | 17.418     |  36.6 | 57.06
Modify  | 0.041039   | 5.0353     | 5.373      |  57.5 | 23.12
Other   |            | 0.008945   |            |       |  0.04

Nlocal:    62.5 ave 70 max 54 min
Histogram: 1 0 0 3 3 4 2 0 2 1
Nghost:    1864.81 ave 1890 max 1833 min
Histogram: 2 0 1 1 2 4 1 1 1 3
Neighs:    0 ave 0 max 0 min
Histogram: 16 0 0 0 0 0 0 0 0 0
FullNghs:  18721.2 ave 21182 max 15917 min
Histogram: 1 0 1 2 3 4 2 0 2 1

Total # of neighbors = 299540
Ave neighs/atom = 299.54
Neighbor list builds = 1000
Dangerous builds not checked
Setting up Verlet run ...
  Unit style    : real
  Current step  : 15000
  Time step     : 1
Per MPI rank memory allocation (min/avg/max) = 4.578 | 4.579 | 4.579 Mbytes
Step Temp E_pair E_mol TotEng Press Volume Lx Ly Lz S/CPU 
   15000    289.66927   -10530.749            0   -9668.1635   -21085.072    788.33185    9.2378241    9.2378241    9.2378241            0 
   15100    287.67986    -10525.05            0   -9668.3885   -11149.076    789.03738    9.2405792    9.2405792    9.2405792    55.779807 
   15200    287.56924   -10522.614            0   -9666.2822   -14058.326     788.8864    9.2399898    9.2399898    9.2399898    44.538941 
   15300    292.77402   -10534.336            0   -9662.5048    502.57334    787.70189    9.2353628    9.2353628    9.2353628    61.687884 
   15400    294.28383    -10533.75            0   -9657.4235   -11374.548    785.79858    9.2279184    9.2279184    9.2279184    48.820959 
   15500    286.56631   -10503.806            0   -9650.4606    17160.903    783.36006    9.2183631    9.2183631    9.2183631    49.073109 
   15600    305.25676   -10554.104            0   -9645.1016    10455.549    781.57872    9.2113703    9.2113703    9.2113703    39.377741 
   15700    305.33984   -10547.445            0   -9638.1948   -5470.9937    780.44922    9.2069309    9.2069309    9.2069309    41.002316 
   15800    305.50529   -10543.701            0   -9633.9584    14955.205    779.26533    9.2022731    9.2022731    9.2022731    43.317606 
   15900    301.50044   -10527.472            0   -9629.6547    5160.7595    778.57813    9.1995673    9.1995673    9.1995673    44.000418 
   16000    296.67097    -10509.17            0   -9625.7342    6050.8426    778.35262     9.198679     9.198679     9.198679    47.232296 
Loop time of 21.422 on 16 procs for 1000 steps with 1000 atoms

Performance: 4.033 ns/day, 5.951 hours/ns, 46.681 timesteps/s
94.7% CPU use with 16 MPI tasks x no OpenMP threads

MPI task timing breakdown:
Section |  min time  |  avg time  |  max time  |%varavg| %total
---------------------------------------------------------------
Pair    | 2.2382     | 2.3859     | 2.5181     |   4.9 | 11.14
Neigh   | 0.76188    | 0.79534    | 0.82886    |   2.0 |  3.71
Comm    | 0.91197    | 1.0745     | 1.2561     |   8.7 |  5.02
Output  | 11.512     | 11.865     | 17.102     |  39.3 | 55.39
Modify  | 0.05488    | 5.2933     | 5.6496     |  58.8 | 24.71
Other   |            | 0.008238   |            |       |  0.04

Nlocal:    62.5 ave 69 max 57 min
Histogram: 2 1 2 1 2 3 2 2 0 1
Nghost:    1865.56 ave 1880 max 1853 min
Histogram: 3 2 1 1 1 1 2 2 1 2
Neighs:    0 ave 0 max 0 min
Histogram: 16 0 0 0 0 0 0 0 0 0
FullNghs:  18938.6 ave 21122 max 17220 min
Histogram: 2 1 2 3 2 1 3 1 0 1

Total # of neighbors = 303018
Ave neighs/atom = 303.018
Neighbor list builds = 1000
Dangerous builds not checked
Setting up Verlet run ...
  Unit style    : real
  Current step  : 16000
  Time step     : 1
Per MPI rank memory allocation (min/avg/max) = 4.578 | 4.579 | 4.579 Mbytes
Step Temp E_pair E_mol TotEng Press Volume Lx Ly Lz S/CPU 
   16000    296.67097    -10509.17            0   -9625.7342    6050.8426    778.35262     9.198679     9.198679     9.198679            0 
   16100     299.5349   -10514.134            0   -9622.1704    4852.0075    778.33198    9.1985977    9.1985977    9.1985977    45.927509 
   16200    298.23549   -10507.689            0   -9619.5947    4410.6747    778.78055    9.2003645    9.2003645    9.2003645     43.84161 
   16300    302.49787   -10516.928            0   -9616.1413   -8137.6588    779.65559     9.203809     9.203809     9.203809    44.400918 
   16400    306.37956   -10527.226            0   -9614.8795    -4632.121      780.957    9.2089272    9.2089272    9.2089272     38.87685 
   16500    305.96773   -10522.533            0   -9611.4132   -13278.799    782.70936    9.2158099    9.2158099    9.2158099    53.667037 
   16600    307.65732   -10526.375            0   -9610.2245   -2079.8666    784.45189    9.2226438    9.2226438    9.2226438    54.703059 
   16700    306.13759   -10520.965            0   -9609.3397   -3712.3574    786.06402    9.2289574    9.2289574    9.2289574    45.659894 
   16800    296.14858   -10489.844            0    -9607.964   -8694.2023     787.5978     9.234956     9.234956     9.234956     49.72628 
   16900    295.16386   -10486.577            0   -9607.6299   -10126.127    788.76484    9.2395152    9.2395152    9.2395152    38.856784 
   17000    298.51331   -10493.619            0   -9604.6973   -19839.785    789.42398    9.2420881    9.2420881    9.2420881    43.390319 
Loop time of 22.0535 on 16 procs for 1000 steps with 1000 atoms

Performance: 3.918 ns/day, 6.126 hours/ns, 45.344 timesteps/s
94.7% CPU use with 16 MPI tasks x no OpenMP threads

MPI task timing breakdown:
Section |  min time  |  avg time  |  max time  |%varavg| %total
---------------------------------------------------------------
Pair    | 2.3091     | 2.4498     | 2.6527     |   5.5 | 11.11
Neigh   | 0.76907    | 0.81017    | 0.85755    |   2.7 |  3.67
Comm    | 0.74999    | 1.0001     | 1.1827     |  10.6 |  4.53
Output  | 11.675     | 12.056     | 17.729     |  42.2 | 54.67
Modify  | 0.05589    | 5.7288     | 6.1101     |  61.2 | 25.98
Other   |            | 0.008352   |            |       |  0.04

Nlocal:    62.5 ave 68 max 57 min
Histogram: 3 0 0 3 3 1 1 2 1 2
Nghost:    1846.94 ave 1861 max 1832 min
Histogram: 1 1 2 1 3 1 3 2 1 1
Neighs:    0 ave 0 max 0 min
Histogram: 16 0 0 0 0 0 0 0 0 0
FullNghs:  18685.1 ave 20462 max 16873 min
Histogram: 2 1 0 2 4 1 2 2 0 2

Total # of neighbors = 298962
Ave neighs/atom = 298.962
Neighbor list builds = 1000
Dangerous builds not checked
Setting up Verlet run ...
  Unit style    : real
  Current step  : 17000
  Time step     : 1
Per MPI rank memory allocation (min/avg/max) = 4.578 | 4.579 | 4.579 Mbytes
Step Temp E_pair E_mol TotEng Press Volume Lx Ly Lz S/CPU 
   17000    298.51331   -10493.619            0   -9604.6973   -19839.785    789.42398    9.2420881    9.2420881    9.2420881            0 
   17100    294.86215   -10479.013            0   -9600.9639   -16172.076     789.0957    9.2408068    9.2408068    9.2408068    47.469493 
   17200    299.98243   -10486.253            0   -9592.9562   -8163.1463     787.5423    9.2347391    9.2347391    9.2347391    52.371637 
   17300    299.43439   -10471.838            0   -9580.1733   -15667.078    785.71236    9.2275809    9.2275809    9.2275809    46.029944 
   17400    302.45061   -10465.802            0   -9565.1557   -5073.7872    783.73746    9.2198432    9.2198432    9.2198432    50.200276 
   17500      306.348   -10461.678            0   -9549.4257    5827.5876    781.88422    9.2125703    9.2125703    9.2125703    54.647025 
   17600    314.74024   -10474.686            0   -9537.4431     9659.892    780.33175    9.2064689    9.2064689    9.2064689    39.066786 
   17700    317.82424   -10474.985            0   -9528.5589   -3452.1817    779.25428    9.2022296    9.2022296    9.2022296    46.261988 
   17800    301.46867   -10419.924            0   -9522.2018    9042.4308    778.69761    9.2000379    9.2000379    9.2000379    46.406537 
   17900    310.03177   -10444.124            0   -9520.9023     7153.465     778.6725     9.199939     9.199939     9.199939    46.560429 
   18000    307.44532   -10436.928            0   -9521.4079    14281.869    779.11508    9.2016816    9.2016816    9.2016816    44.388374 
Loop time of 21.2873 on 16 procs for 1000 steps with 1000 atoms

Performance: 4.059 ns/day, 5.913 hours/ns, 46.976 timesteps/s
94.7% CPU use with 16 MPI tasks x no OpenMP threads

MPI task timing breakdown:
Section |  min time  |  avg time  |  max time  |%varavg| %total
---------------------------------------------------------------
Pair    | 2.2645     | 2.4372     | 2.6559     |   5.6 | 11.45
Neigh   | 0.77247    | 0.80561    | 0.8598     |   2.5 |  3.78
Comm    | 0.77272    | 1.0451     | 1.2505     |  10.5 |  4.91
Output  | 11.281     | 11.638     | 16.934     |  40.1 | 54.67
Modify  | 0.056678   | 5.3532     | 5.7109     |  59.1 | 25.15
Other   |            | 0.008299   |            |       |  0.04

Nlocal:    62.5 ave 72 max 58 min
Histogram: 1 2 6 3 2 1 0 0 0 1
Nghost:    1877.56 ave 1889 max 1863 min
Histogram: 2 0 1 2 2 0 2 3 3 1
Neighs:    0 ave 0 max 0 min
Histogram: 16 0 0 0 0 0 0 0 0 0
FullNghs:  18936.6 ave 22022 max 17413 min
Histogram: 1 2 5 5 2 0 0 0 0 1

Total # of neighbors = 302986
Ave neighs/atom = 302.986
Neighbor list builds = 1000
Dangerous builds not checked
Setting up Verlet run ...
  Unit style    : real
  Current step  : 18000
  Time step     : 1
Per MPI rank memory allocation (min/avg/max) = 4.578 | 4.579 | 4.579 Mbytes
Step Temp E_pair E_mol TotEng Press Volume Lx Ly Lz S/CPU 
   18000    307.44532   -10436.928            0   -9521.4079    14281.869    779.11508    9.2016816    9.2016816    9.2016816            0 
   18100    314.30644   -10461.797            0   -9525.8459   -5491.2394    780.29677    9.2063314    9.2063314    9.2063314    43.864114 
   18200    302.49982   -10431.598            0   -9530.8054    15136.685    781.67476    9.2117476    9.2117476    9.2117476    52.549637 
   18300    321.24158   -10498.826            0   -9542.2233    4255.7329    783.29176    9.2180951    9.2180951    9.2180951    42.427004 
   18400      311.297    -10480.43            0   -9553.4411   -9802.3648     785.0342    9.2249253    9.2249253    9.2249253    52.482747 
   18500    305.21769   -10474.282            0    -9565.396   -4846.1961    786.79258    9.2318077    9.2318077    9.2318077    43.608101 
   18600    301.61953   -10474.203            0   -9576.0312   -2602.0178    788.37235    9.2379824    9.2379824    9.2379824    48.728853 
   18700    297.94491   -10473.499            0   -9586.2695   -6710.3606    789.30516    9.2416244    9.2416244    9.2416244    64.399637 
   18800    300.22413   -10488.589            0   -9594.5732   -5333.1403    789.81046    9.2435961    9.2435961    9.2435961    44.816567 
   18900    309.72706   -10522.296            0   -9599.9814   -10094.668     789.8676     9.243819     9.243819     9.243819    66.886119 
   19000    293.54626   -10477.788            0   -9603.6576   -5266.8532    789.48197    9.2423144    9.2423144    9.2423144    47.022934 
Loop time of 20.1963 on 16 procs for 1000 steps with 1000 atoms

Performance: 4.278 ns/day, 5.610 hours/ns, 49.514 timesteps/s
94.8% CPU use with 16 MPI tasks x no OpenMP threads

MPI task timing breakdown:
Section |  min time  |  avg time  |  max time  |%varavg| %total
---------------------------------------------------------------
Pair    | 2.2501     | 2.3658     | 2.4916     |   3.9 | 11.71
Neigh   | 0.75776    | 0.78992    | 0.83927    |   2.4 |  3.91
Comm    | 0.88258    | 1.0571     | 1.205      |   7.6 |  5.23
Output  | 10.099     | 10.465     | 15.908     |  43.4 | 51.82
Modify  | 0.066263   | 5.5102     | 5.8767     |  59.9 | 27.28
Other   |            | 0.008183   |            |       |  0.04

Nlocal:    62.5 ave 67 max 59 min
Histogram: 2 2 1 2 0 4 2 2 0 1
Nghost:    1844.12 ave 1866 max 1828 min
Histogram: 3 0 1 5 1 3 0 2 0 1
Neighs:    0 ave 0 max 0 min
Histogram: 16 0 0 0 0 0 0 0 0 0
FullNghs:  18703 ave 20339 max 17429 min
Histogram: 3 2 0 2 1 3 4 0 0 1

Total # of neighbors = 299248
Ave neighs/atom = 299.248
Neighbor list builds = 1000
Dangerous builds not checked
Setting up Verlet run ...
  Unit style    : real
  Current step  : 19000
  Time step     : 1
Per MPI rank memory allocation (min/avg/max) = 4.578 | 4.579 | 4.579 Mbytes
Step Temp E_pair E_mol TotEng Press Volume Lx Ly Lz S/CPU 
   19000    293.54626   -10477.788            0   -9603.6576   -5266.8532    789.48197    9.2423144    9.2423144    9.2423144            0 
   19100    299.21873   -10498.653            0   -9607.6307    1672.3351    788.78727    9.2396027    9.2396027    9.2396027    67.389863 
   19200    300.27076   -10504.717            0   -9610.5617   -16130.619    787.92522    9.2362356    9.2362356    9.2362356    59.199281 
   19300     304.0241   -10517.428            0   -9612.0957   -4673.1594    786.40254     9.230282     9.230282     9.230282    47.791256 
   19400    293.84615   -10487.993            0   -9612.9694   -21647.927    784.57236    9.2231159    9.2231159    9.2231159    58.637596 
   19500    289.77755   -10475.028            0   -9612.1199   -9614.6721    781.92623    9.2127353    9.2127353    9.2127353    44.960335 
   19600    303.87613   -10518.424            0   -9613.5331   -3795.3454    778.46599    9.1991256    9.1991256    9.1991256    52.346151 
   19700    305.64248   -10522.966            0   -9612.8146    5229.3732    774.60226    9.1838811    9.1838811    9.1838811    41.439275 
   19800    296.43436   -10493.364            0    -9610.633    9035.0091    771.18874    9.1703707    9.1703707    9.1703707    46.921575 
   19900    298.65397   -10497.027            0    -9607.686    19485.841    768.72978    9.1606137    9.1606137    9.1606137    15.629117 
   20000    302.49588   -10505.478            0   -9604.6964    19425.528    767.92577    9.1574189    9.1574189    9.1574189    48.524772 
Loop time of 24.109 on 16 procs for 1000 steps with 1000 atoms

Performance: 3.584 ns/day, 6.697 hours/ns, 41.478 timesteps/s
94.6% CPU use with 16 MPI tasks x no OpenMP threads

MPI task timing breakdown:
Section |  min time  |  avg time  |  max time  |%varavg| %total
---------------------------------------------------------------
Pair    | 2.3023     | 2.4349     | 2.6642     |   6.0 | 10.10
Neigh   | 0.75751    | 0.79983    | 0.87335    |   3.0 |  3.32
Comm    | 0.74889    | 1.0517     | 1.2261     |  11.3 |  4.36
Output  | 11.723     | 12.227     | 19.735     |  55.4 | 50.71
Modify  | 0.078592   | 7.5874     | 8.092      |  70.4 | 31.47
Other   |            | 0.008295   |            |       |  0.03

Nlocal:    62.5 ave 66 max 58 min
Histogram: 1 1 2 3 0 2 1 1 1 4
Nghost:    1890.69 ave 1906 max 1873 min
Histogram: 1 1 1 2 1 4 1 1 2 2
Neighs:    0 ave 0 max 0 min
Histogram: 16 0 0 0 0 0 0 0 0 0
FullNghs:  19201.2 ave 20356 max 17944 min
Histogram: 2 2 1 2 2 0 1 1 1 4

Total # of neighbors = 307220
Ave neighs/atom = 307.22
Neighbor list builds = 1000
Dangerous builds not checked
Setting up Verlet run ...
  Unit style    : real
  Current step  : 20000
  Time step     : 1
Per MPI rank memory allocation (min/avg/max) = 4.578 | 4.579 | 4.579 Mbytes
Step Temp E_pair E_mol TotEng Press Volume Lx Ly Lz S/CPU 
   20000    302.49588   -10505.478            0   -9604.6964    19425.528    767.92577    9.1574189    9.1574189    9.1574189            0 
   20100     302.5915   -10501.433            0    -9600.367    24897.299    768.81812    9.1609646    9.1609646    9.1609646    33.873472 
   20200    297.95322   -10482.989            0   -9595.7347    18712.035    771.30852    9.1708455    9.1708455    9.1708455    41.818195 
   20300    304.89054   -10497.588            0   -9589.6762    2631.8817    775.00736    9.1854818    9.1854818    9.1854818    42.017088 
   20400     292.0893   -10448.901            0   -9579.1086    5730.6682    779.19866    9.2020107    9.2020107    9.2020107    41.911524 
   20500     303.9362   -10474.413            0   -9569.3427   -11484.072    783.62909    9.2194182    9.2194182    9.2194182     49.62057 
   20600    301.51059   -10456.193            0   -9558.3459   -27553.849    787.51141    9.2346183    9.2346183    9.2346183    43.760318 
   20700    311.13432   -10475.751            0   -9549.2462    4518.5798    790.69466    9.2470442    9.2470442    9.2470442    47.192595 
   20800    304.97755   -10449.652            0   -9541.4811   -9670.8355    793.62219    9.2584425    9.2584425    9.2584425    41.671391 
   20900    314.70615   -10472.461            0   -9535.3201   -4591.9067    795.78988    9.2668643    9.2668643    9.2668643    49.925634 
   21000    308.13125   -10447.729            0   -9530.1665   -25391.416    797.04868    9.2717479    9.2717479    9.2717479    45.695159 
Loop time of 23.12 on 16 procs for 1000 steps with 1000 atoms

Performance: 3.737 ns/day, 6.422 hours/ns, 43.253 timesteps/s
94.7% CPU use with 16 MPI tasks x no OpenMP threads

MPI task timing breakdown:
Section |  min time  |  avg time  |  max time  |%varavg| %total
---------------------------------------------------------------
Pair    | 2.2938     | 2.3878     | 2.6069     |   5.2 | 10.33
Neigh   | 0.75615    | 0.7911     | 0.84662    |   2.7 |  3.42
Comm    | 0.80068    | 1.0756     | 1.205      |   9.8 |  4.65
Output  | 12.931     | 13.302     | 18.806     |  39.0 | 57.53
Modify  | 0.05041    | 5.5555     | 5.9262     |  60.3 | 24.03
Other   |            | 0.008231   |            |       |  0.04

Nlocal:    62.5 ave 69 max 56 min
Histogram: 2 2 0 3 3 0 1 1 1 3
Nghost:    1842.06 ave 1865 max 1816 min
Histogram: 1 1 2 1 3 2 1 1 2 2
Neighs:    0 ave 0 max 0 min
Histogram: 16 0 0 0 0 0 0 0 0 0
FullNghs:  18500.6 ave 20487 max 16644 min
Histogram: 2 2 1 2 3 0 1 1 1 3

Total # of neighbors = 296010
Ave neighs/atom = 296.01
Neighbor list builds = 1000
Dangerous builds not checked
Setting up Verlet run ...
  Unit style    : real
  Current step  : 21000
  Time step     : 1
Per MPI rank memory allocation (min/avg/max) = 4.578 | 4.579 | 4.579 Mbytes
Step Temp E_pair E_mol TotEng Press Volume Lx Ly Lz S/CPU 
   21000    308.13125   -10447.729            0   -9530.1665   -25391.416    797.04868    9.2717479    9.2717479    9.2717479            0 
   21100     309.7309   -10449.778            0   -9527.4525   -2308.4976    797.15983    9.2721789    9.2721789    9.2721789    42.479633 
   21200    317.02704   -10471.226            0   -9527.1739   -9636.0166    796.70643    9.2704206    9.2704206    9.2704206     38.25296 
   21300    309.98577   -10452.593            0   -9529.5084   -1911.3707    795.50461    9.2657569    9.2657569    9.2657569    52.175352 
   21400      309.167   -10454.696            0    -9534.049   -8632.9671     793.7665    9.2590036    9.2590036    9.2590036    40.794691 
   21500    291.67953   -10408.029            0    -9539.457    2058.9527    791.59065    9.2505357    9.2505357    9.2505357    45.857647 
   21600    301.91423   -10450.248            0   -9551.1994    20996.211    789.63106    9.2428962    9.2428962    9.2428962    40.316803 
   21700    302.58088   -10465.996            0   -9564.9622    3069.0764    788.35723    9.2379233    9.2379233    9.2379233    57.432266 
   21800    309.18593   -10502.776            0   -9582.0731    2046.1768    786.91179     9.232274     9.232274     9.232274    45.075709 
   21900    292.16435   -10465.556            0   -9595.5403   -964.43588    785.28586     9.225911     9.225911     9.225911     44.65898 
   22000    304.96832   -10514.887            0   -9606.7438   -2833.4186    783.56799    9.2191786    9.2191786    9.2191786    43.354991 
Loop time of 22.5072 on 16 procs for 1000 steps with 1000 atoms

Performance: 3.839 ns/day, 6.252 hours/ns, 44.430 timesteps/s
94.7% CPU use with 16 MPI tasks x no OpenMP threads

MPI task timing breakdown:
Section |  min time  |  avg time  |  max time  |%varavg| %total
---------------------------------------------------------------
Pair    | 2.2454     | 2.3702     | 2.4742     |   4.1 | 10.53
Neigh   | 0.75692    | 0.79774    | 0.83142    |   2.2 |  3.54
Comm    | 0.88563    | 0.99902    | 1.166      |   8.0 |  4.44
Output  | 12.601     | 12.96      | 18.29      |  38.2 | 57.58
Modify  | 0.036031   | 5.3676     | 5.7271     |  59.4 | 23.85
Other   |            | 0.01259    |            |       |  0.06

Nlocal:    62.5 ave 67 max 55 min
Histogram: 1 0 0 1 2 3 3 1 2 3
Nghost:    1861.5 ave 1881 max 1847 min
Histogram: 2 0 4 1 2 5 0 1 0 1
Neighs:    0 ave 0 max 0 min
Histogram: 16 0 0 0 0 0 0 0 0 0
FullNghs:  18822.4 ave 20264 max 16401 min
Histogram: 1 0 0 1 3 2 4 0 3 2

Total # of neighbors = 301158
Ave neighs/atom = 301.158
Neighbor list builds = 1000
Dangerous builds not checked
Setting up Verlet run ...
  Unit style    : real
  Current step  : 22000
  Time step     : 1
Per MPI rank memory allocation (min/avg/max) = 4.578 | 4.579 | 4.579 Mbytes
Step Temp E_pair E_mol TotEng Press Volume Lx Ly Lz S/CPU 
   22000    304.96832   -10514.887            0   -9606.7438   -2833.4186    783.56799    9.2191786    9.2191786    9.2191786            0 
   22100    299.89576   -10505.296            0   -9612.2578    10114.591    781.99845    9.2130189    9.2130189    9.2130189    47.692384 
   22200    291.07519    -10484.08            0    -9617.308   -4577.3576    780.50595     9.207154     9.207154     9.207154    47.152432 
   22300    297.65295   -10508.755            0   -9622.3957    26055.674     778.9381    9.2009849    9.2009849    9.2009849    52.750755 
   22400     294.0781   -10500.039            0   -9624.3243    14718.815    778.59788    9.1996451    9.1996451    9.1996451    48.853059 
   22500    308.02574   -10544.698            0   -9627.4502   -9102.4769    779.36014    9.2026463    9.2026463    9.2026463    53.654671 
   22600     297.4442   -10514.195            0   -9628.4566   -252.43317    780.17713    9.2058608    9.2058608    9.2058608     46.21789 
   22700    294.68221   -10506.559            0   -9629.0453    1553.2786    781.27685    9.2101843    9.2101843    9.2101843    49.399247 
   22800    293.08151   -10501.986            0    -9629.239   -8495.2895    782.67752     9.215685     9.215685     9.215685    57.260817 
   22900    308.32377   -10547.878            0   -9629.7422    5293.6682    784.07127     9.221152     9.221152     9.221152    45.135478 
   23000    296.33345   -10510.755            0    -9628.325   -6631.0477     785.8016    9.2279302    9.2279302    9.2279302    40.005954 
Loop time of 20.6738 on 16 procs for 1000 steps with 1000 atoms

Performance: 4.179 ns/day, 5.743 hours/ns, 48.370 timesteps/s
94.8% CPU use with 16 MPI tasks x no OpenMP threads

MPI task timing breakdown:
Section |  min time  |  avg time  |  max time  |%varavg| %total
---------------------------------------------------------------
Pair    | 2.3121     | 2.477      | 2.6004     |   5.1 | 11.98
Neigh   | 0.7744     | 0.81416    | 0.87502    |   2.7 |  3.94
Comm    | 0.86176    | 1.0121     | 1.2179     |  10.1 |  4.90
Output  | 11.285     | 11.602     | 16.306     |  35.7 | 56.12
Modify  | 0.054935   | 4.7595     | 5.0771     |  55.7 | 23.02
Other   |            | 0.008569   |            |       |  0.04

Nlocal:    62.5 ave 66 max 59 min
Histogram: 2 0 2 0 5 2 0 2 2 1
Nghost:    1848.56 ave 1863 max 1833 min
Histogram: 3 0 0 2 2 2 2 1 2 2
Neighs:    0 ave 0 max 0 min
Histogram: 16 0 0 0 0 0 0 0 0 0
FullNghs:  18772.8 ave 19879 max 17744 min
Histogram: 2 0 2 3 2 1 3 1 1 1

Total # of neighbors = 300364
Ave neighs/atom = 300.364
Neighbor list builds = 1000
Dangerous builds not checked
Setting up Verlet run ...
  Unit style    : real
  Current step  : 23000
  Time step     : 1
Per MPI rank memory allocation (min/avg/max) = 4.578 | 4.579 | 4.579 Mbytes
Step Temp E_pair E_mol TotEng Press Volume Lx Ly Lz S/CPU 
   23000    296.33345   -10510.755            0    -9628.325   -6631.0477     785.8016    9.2279302    9.2279302    9.2279302            0 
   23100    294.96227   -10504.989            0   -9626.6414   -11344.643    787.45848    9.2344114    9.2344114    9.2344114    33.088165 
   23200    294.99841   -10502.461            0   -9624.0056   -19176.466    788.51421    9.2385364    9.2385364    9.2385364    48.888957 
   23300    295.22779   -10498.959            0   -9619.8206   -15224.209    788.29433    9.2376776    9.2376776    9.2376776    41.834299 
   23400    300.02161   -10510.224            0   -9616.8112   -5940.6951    786.83105    9.2319582    9.2319582    9.2319582    42.623692 
   23500    293.98685   -10485.524            0   -9610.0811   -7513.6594    784.60131    9.2232294    9.2232294    9.2232294    34.882649 
   23600    298.28177   -10489.415            0   -9601.1833      6113.76    781.84764    9.2124267    9.2124267    9.2124267    52.755972 
   23700    302.04797   -10491.454            0   -9592.0067   -5807.2238    778.59838     9.199647     9.199647     9.199647    44.094002 
   23800    303.84728   -10486.185            0   -9581.3795    14619.204    775.35526    9.1868561    9.1868561    9.1868561    54.806296 
   23900     299.7821   -10461.979            0   -9569.2795    20436.221    773.06614    9.1778062    9.1778062    9.1778062    43.944523 
   24000    312.32588   -10490.757            0   -9560.7037    17153.844    772.09089    9.1739452    9.1739452    9.1739452     55.26638 
Loop time of 22.744 on 16 procs for 1000 steps with 1000 atoms

Performance: 3.799 ns/day, 6.318 hours/ns, 43.968 timesteps/s
94.7% CPU use with 16 MPI tasks x no OpenMP threads

MPI task timing breakdown:
Section |  min time  |  avg time  |  max time  |%varavg| %total
---------------------------------------------------------------
Pair    | 2.4005     | 2.5013     | 2.6462     |   4.4 | 11.00
Neigh   | 0.7951     | 0.81789    | 0.84975    |   1.9 |  3.60
Comm    | 0.79862    | 0.97557    | 1.0924     |   8.5 |  4.29
Output  | 12.466     | 12.838     | 18.361     |  39.8 | 56.44
Modify  | 0.078918   | 5.6031     | 5.9751     |  60.3 | 24.64
Other   |            | 0.008439   |            |       |  0.04

Nlocal:    62.5 ave 68 max 54 min
Histogram: 1 0 1 0 3 3 1 4 1 2
Nghost:    1859.94 ave 1885 max 1837 min
Histogram: 1 0 3 2 2 3 3 1 0 1
Neighs:    0 ave 0 max 0 min
Histogram: 16 0 0 0 0 0 0 0 0 0
FullNghs:  19114.2 ave 20884 max 16497 min
Histogram: 1 0 1 0 4 3 0 4 1 2

Total # of neighbors = 305828
Ave neighs/atom = 305.828
Neighbor list builds = 1000
Dangerous builds not checked
Setting up Verlet run ...
  Unit style    : real
  Current step  : 24000
  Time step     : 1
Per MPI rank memory allocation (min/avg/max) = 4.578 | 4.579 | 4.579 Mbytes
Step Temp E_pair E_mol TotEng Press Volume Lx Ly Lz S/CPU 
   24000    312.32588   -10490.757            0   -9560.7037    17153.844    772.09089    9.1739452    9.1739452    9.1739452            0 
   24100    303.75799   -10457.998            0   -9553.4586    11521.779    772.61916    9.1760371    9.1760371    9.1760371    49.316636 
   24200    318.02506   -10497.458            0   -9550.4333     17089.64    774.75111    9.1844693    9.1844693    9.1844693    39.846957 
   24300    304.65275   -10454.464            0   -9547.2597   -3627.0047    778.27774     9.198384     9.198384     9.198384    41.684182 
   24400    317.95319   -10493.865            0   -9547.0544    10441.339    782.44347    9.2147663    9.2147663    9.2147663    50.880302 
   24500    302.88907   -10449.299            0   -9547.3472   -10770.899    787.10044    9.2330117    9.2330117    9.2330117    46.770129 
   24600    310.92289   -10476.659            0   -9550.7836   -10220.012     791.2467    9.2491957    9.2491957    9.2491957    56.055584 
   24700    296.48379   -10439.223            0   -9556.3445   -11635.035    794.84254    9.2631857    9.2631857    9.2631857    46.082517 
   24800    307.17442   -10481.855            0   -9567.1425   -19010.884    797.57174    9.2737757    9.2737757    9.2737757    50.622279 
   24900    299.02334    -10471.91            0   -9581.4695   -12661.769    798.95624    9.2791387    9.2791387    9.2791387    47.310631 
   25000    294.74679   -10476.126            0     -9598.42   -17984.138    799.19879    9.2800776    9.2800776    9.2800776    49.992539 
Loop time of 21.0833 on 16 procs for 1000 steps with 1000 atoms

Performance: 4.098 ns/day, 5.856 hours/ns, 47.431 timesteps/s
94.7% CPU use with 16 MPI tasks x no OpenMP threads

MPI task timing breakdown:
Section |  min time  |  avg time  |  max time  |%varavg| %total
---------------------------------------------------------------
Pair    | 2.2625     | 2.3656     | 2.5069     |   4.2 | 11.22
Neigh   | 0.7632     | 0.78811    | 0.82538    |   2.0 |  3.74
Comm    | 0.89293    | 1.0598     | 1.188      |   7.7 |  5.03
Output  | 11.128     | 11.486     | 16.799     |  40.5 | 54.48
Modify  | 0.062329   | 5.3759     | 5.7337     |  59.2 | 25.50
Other   |            | 0.008299   |            |       |  0.04

Nlocal:    62.5 ave 70 max 56 min
Histogram: 2 0 2 3 1 3 2 1 0 2
Nghost:    1830.5 ave 1853 max 1809 min
Histogram: 1 1 2 3 2 1 1 3 1 1
Neighs:    0 ave 0 max 0 min
Histogram: 16 0 0 0 0 0 0 0 0 0
FullNghs:  18479.5 ave 20663 max 16394 min
Histogram: 2 0 2 3 1 3 2 1 0 2

Total # of neighbors = 295672
Ave neighs/atom = 295.672
Neighbor list builds = 1000
Dangerous builds not checked
Setting up Verlet run ...
  Unit style    : real
  Current step  : 25000
  Time step     : 1
Per MPI rank memory allocation (min/avg/max) = 4.578 | 4.579 | 4.579 Mbytes
Step Temp E_pair E_mol TotEng Press Volume Lx Ly Lz S/CPU 
   25000    294.74679   -10476.126            0     -9598.42   -17984.138    799.19879    9.2800776    9.2800776    9.2800776            0 
   25100    306.78076   -10528.828            0   -9615.2874   -23216.171    797.98104    9.2753618    9.2753618    9.2753618    45.164384 
   25200    291.91126   -10496.474            0   -9627.2124   -7068.4262     795.5973    9.2661167    9.2661167    9.2661167    37.717979 
   25300    304.11406   -10541.396            0   -9635.7965   -52.625632    792.49928    9.2540738    9.2540738    9.2540738    48.986897 
   25400    299.06114   -10530.329            0   -9639.7756   -3318.1017    788.69655    9.2392485    9.2392485    9.2392485     45.25134 
   25500    282.94386   -10482.813            0   -9640.2544    -15715.73    784.14016    9.2214221    9.2214221    9.2214221    42.270061 
   25600    289.19261   -10502.166            0   -9640.9996    556.35939    778.97722    9.2011389    9.2011389    9.2011389    38.197093 
   25700    292.22815    -10509.47            0    -9639.264    19885.382    774.39145    9.1830479    9.1830479    9.1830479    58.129759 
   25800    301.33601   -10534.331            0   -9637.0037    14790.626     771.2463    9.1705989    9.1705989    9.1705989    45.731211 
   25900    300.87508   -10531.793            0   -9635.8389    18824.675    769.41634      9.16334      9.16334      9.16334    53.022248 
   26000    302.26323   -10535.175            0    -9635.087    31235.273    769.78813    9.1648157    9.1648157    9.1648157    44.345127 
Loop time of 22.1484 on 16 procs for 1000 steps with 1000 atoms

Performance: 3.901 ns/day, 6.152 hours/ns, 45.150 timesteps/s
94.7% CPU use with 16 MPI tasks x no OpenMP threads

MPI task timing breakdown:
Section |  min time  |  avg time  |  max time  |%varavg| %total
---------------------------------------------------------------
Pair    | 2.3765     | 2.4568     | 2.5749     |   3.8 | 11.09
Neigh   | 0.78902    | 0.81492    | 0.86341    |   2.2 |  3.68
Comm    | 0.82092    | 0.99163    | 1.0984     |   7.7 |  4.48
Output  | 11.126     | 11.549     | 17.806     |  47.5 | 52.15
Modify  | 0.075089   | 6.3274     | 6.7505     |  64.2 | 28.57
Other   |            | 0.008314   |            |       |  0.04

Nlocal:    62.5 ave 67 max 57 min
Histogram: 1 1 1 2 0 2 1 4 2 2
Nghost:    1878.88 ave 1906 max 1857 min
Histogram: 1 1 3 1 5 1 1 2 0 1
Neighs:    0 ave 0 max 0 min
Histogram: 16 0 0 0 0 0 0 0 0 0
FullNghs:  19195.8 ave 20524 max 17394 min
Histogram: 1 2 1 1 0 2 2 3 2 2

Total # of neighbors = 307132
Ave neighs/atom = 307.132
Neighbor list builds = 1000
Dangerous builds not checked
Setting up Verlet run ...
  Unit style    : real
  Current step  : 26000
  Time step     : 1
Per MPI rank memory allocation (min/avg/max) = 4.578 | 4.579 | 4.579 Mbytes
Step Temp E_pair E_mol TotEng Press Volume Lx Ly Lz S/CPU 
   26000    302.26323   -10535.175            0    -9635.087    31235.273    769.78813    9.1648157    9.1648157    9.1648157            0 
   26100    311.37628   -10563.657            0   -9636.4317    28675.268    772.41561    9.1752311    9.1752311    9.1752311    41.346089 
   26200    305.84925   -10547.455            0   -9636.6884    1082.9502    776.46012    9.1912177    9.1912177    9.1912177    56.372981 
   26300     303.6693   -10541.215            0   -9636.9401   -5687.5354    780.75784    9.2081443    9.2081443    9.2081443    58.814865 
   26400    299.68315   -10527.684            0   -9635.2786    3132.7909    784.70925    9.2236523    9.2236523    9.2236523    47.834711 
   26500    313.41987   -10567.392            0   -9634.0814   -8468.3566    787.95234    9.2363415    9.2363415    9.2363415    51.059149 
   26600    288.47621   -10488.742            0   -9629.7086    -9567.581     790.3905    9.2458584    9.2458584    9.2458584    37.006887 
   26700    293.77219   -10500.887            0   -9626.0837   -6857.8701    791.80134    9.2513564    9.2513564    9.2513564    42.961987 
   26800    286.92981     -10474.4            0   -9619.9716   -12002.834    792.33037    9.2534163    9.2534163    9.2534163    40.116105 
   26900    288.34516   -10468.346            0   -9609.7031   -3584.1484    792.28528    9.2532408    9.2532408    9.2532408    45.061839 
   27000    296.95823   -10480.994            0   -9596.7033   -631.75577    791.67469    9.2508631    9.2508631    9.2508631    43.101822 
Loop time of 22.0037 on 16 procs for 1000 steps with 1000 atoms

Performance: 3.927 ns/day, 6.112 hours/ns, 45.447 timesteps/s
94.7% CPU use with 16 MPI tasks x no OpenMP threads

MPI task timing breakdown:
Section |  min time  |  avg time  |  max time  |%varavg| %total
---------------------------------------------------------------
Pair    | 2.2423     | 2.3643     | 2.4751     |   4.0 | 10.75
Neigh   | 0.75451    | 0.78887    | 0.82715    |   2.2 |  3.59
Comm    | 0.90339    | 1.0538     | 1.211      |   7.6 |  4.79
Output  | 11.643     | 12.026     | 17.734     |  42.5 | 54.66
Modify  | 0.054291   | 5.7619     | 6.1458     |  61.4 | 26.19
Other   |            | 0.008285   |            |       |  0.04

Nlocal:    62.5 ave 66 max 60 min
Histogram: 2 5 0 1 0 3 3 0 0 2
Nghost:    1853.19 ave 1868 max 1840 min
Histogram: 2 2 1 2 1 3 1 1 1 2
Neighs:    0 ave 0 max 0 min
Histogram: 16 0 0 0 0 0 0 0 0 0
FullNghs:  18656.9 ave 19895 max 17715 min
Histogram: 1 3 3 1 0 3 3 0 0 2

Total # of neighbors = 298510
Ave neighs/atom = 298.51
Neighbor list builds = 1000
Dangerous builds not checked
Setting up Verlet run ...
  Unit style    : real
  Current step  : 27000
  Time step     : 1
Per MPI rank memory allocation (min/avg/max) = 4.578 | 4.579 | 4.579 Mbytes
Step Temp E_pair E_mol TotEng Press Volume Lx Ly Lz S/CPU 
   27000    296.95823   -10480.994            0   -9596.7033   -631.75577    791.67469    9.2508631    9.2508631    9.2508631            0 
   27100    310.36614    -10506.38            0   -9582.1622   -5459.6926    790.40842    9.2459283    9.2459283    9.2459283    49.305022 
   27200    302.96894   -10472.778            0   -9570.5887   -7890.5182    788.67573    9.2391672    9.2391672    9.2391672    42.246036 
   27300    315.17287   -10500.134            0   -9561.6027    6638.4623    786.74442    9.2316194    9.2316194    9.2316194     51.99137 
   27400    316.54183   -10501.042            0   -9558.4341    2359.9534     785.2945    9.2259448    9.2259448    9.2259448    47.944916 
   27500    302.07783   -10454.061            0   -9554.5246    4519.0827    784.40436    9.2224576    9.2224576    9.2224576    51.859885 
   27600    314.58709   -10491.226            0   -9554.4393    -3706.356    783.55133    9.2191133    9.2191133    9.2191133    44.478416 
   27700    308.70108   -10476.044            0   -9556.7851    2553.4511    782.61228    9.2154289    9.2154289    9.2154289    55.550884 
   27800    309.93339   -10483.286            0   -9560.3571   -5628.3334    781.86882    9.2125098    9.2125098    9.2125098    48.104974 
   27900    303.98684   -10470.104            0   -9564.8831    13382.405    781.60526    9.2114746    9.2114746    9.2114746    51.843585 
   28000     305.2384   -10480.391            0   -9571.4433   -6482.5898    781.86394    9.2124907    9.2124907    9.2124907    43.924239 
Loop time of 20.6654 on 16 procs for 1000 steps with 1000 atoms

[...]
  369700    299.22778   -11295.911            0   -10404.862    5242.5252     741.0417     9.049284     9.049284     9.049284    49.449897 
  369800    292.70706     -11272.8            0   -10401.168   -3839.0237    741.80889    9.0524057    9.0524057    9.0524057    58.060356 
  369900    298.67989   -11285.588            0   -10396.171   -2977.1365    742.37676    9.0547151    9.0547151    9.0547151    43.462853 
  370000    300.68571   -11284.131            0   -10388.741   -19777.062     742.7618    9.0562802    9.0562802    9.0562802    43.915114 
  370100    294.21796   -11254.945            0   -10378.814   -4965.9611    742.58285    9.0555529    9.0555529    9.0555529    54.257184 
  370200    299.97123    -11261.87            0   -10368.607   -4957.4199    741.91617    9.0528421    9.0528421    9.0528421    48.989346 
  370300     303.0057   -11258.744            0   -10356.444     2274.525    741.02272    9.0492067    9.0492067    9.0492067     51.92803 
  370400    298.78569   -11233.698            0   -10343.966    5172.9891    740.07295    9.0453389    9.0453389    9.0453389    46.580565 
  370500    294.08086    -11210.57            0   -10334.848    12581.759    739.44382     9.042775     9.042775     9.042775    51.099134 
  370600    302.94939   -11231.045            0   -10328.913     10509.56     739.1784     9.041693     9.041693     9.041693     52.66591 
  370700    298.78537   -11214.428            0   -10324.696    7496.7005    739.35675    9.0424201    9.0424201    9.0424201    49.126354 
  370800     302.7329   -11226.083            0   -10324.596    3264.1188    740.00601    9.0450662    9.0450662    9.0450662    51.065746 
  370900    318.80174    -11275.74            0   -10326.403    7846.9714    740.93702    9.0488578    9.0488578    9.0488578    55.551384 
  371000    305.33312   -11236.421            0   -10327.192   -12999.451    741.98429    9.0531191    9.0531191    9.0531191    51.479077 
  371100    298.30317   -11217.676            0    -10329.38    79.383236    742.79278    9.0564062    9.0564062    9.0564062    50.577732 
  371200    307.01536    -11246.65            0    -10332.41   -16138.847    743.57648    9.0595901    9.0595901    9.0595901    56.426384 
  371300    304.33537   -11242.807            0   -10336.548   -10553.656    744.17321    9.0620129    9.0620129    9.0620129    54.704408 
  371400    299.60908   -11232.709            0   -10340.524    3108.6648    744.54534    9.0635232    9.0635232    9.0635232    59.954672 
  371500    311.14703   -11271.479            0   -10344.937   -12499.834     744.6186    9.0638204    9.0638204    9.0638204    61.206734 
  371600    306.23272    -11261.81            0   -10349.901   -529.54947    744.07844    9.0616282    9.0616282    9.0616282    51.676183 
  371700    304.49287   -11260.788            0    -10354.06   -6179.1603    742.95946    9.0570835    9.0570835    9.0570835    47.686909 
  371800    303.12861   -11261.463            0   -10358.798    31592.863    741.59051    9.0515173    9.0515173    9.0515173    46.031998 
  371900    291.89528   -11230.904            0   -10361.689    6871.4956    740.82429    9.0483989    9.0483989    9.0483989    48.460863 
  372000    303.12194    -11268.96            0   -10366.315    3264.9677    741.01993    9.0491953    9.0491953    9.0491953       56.875 
  372100    290.94856   -11234.118            0   -10367.723    8443.3895    741.79201    9.0523371    9.0523371    9.0523371    48.868959 
  372200    291.24167   -11238.066            0   -10370.798   -4346.5333     743.1589    9.0578938    9.0578938    9.0578938    53.513984 
  372300    301.21234   -11270.512            0   -10373.553   -9491.0799    744.67263    9.0640397    9.0640397    9.0640397    53.413698 
  372400     296.0999   -11255.913            0   -10374.178   -11519.465    745.72158    9.0682936    9.0682936    9.0682936    59.507291 
  372500    312.91025   -11309.883            0    -10378.09   -11793.985    746.05013    9.0696251    9.0696251    9.0696251    44.245522 
  372600    285.14844   -11226.951            0   -10377.827   -18806.447    745.45524    9.0672138    9.0672138    9.0672138    47.777771 
  372700    286.32079   -11233.375            0   -10380.761    3793.0923    743.94396    9.0610823    9.0610823    9.0610823    55.539794 
  372800     292.4049   -11253.461            0   -10382.729   -981.11653    741.86497    9.0526338    9.0526338    9.0526338    48.505442 
  372900    297.52352   -11271.653            0   -10385.679    10435.723    739.56726    9.0432782    9.0432782    9.0432782     35.20047 
  373000    302.58377    -11293.58            0   -10392.537    18684.937    737.76381    9.0359215    9.0359215    9.0359215    55.828499 
  373100    289.50308   -11260.879            0   -10398.788    9843.5306    736.83208     9.032116     9.032116     9.032116    51.900061 
  373200    301.75911   -11306.586            0   -10407.999    21937.477    736.82782    9.0320986    9.0320986    9.0320986    53.311244 
  373300    294.05842   -11291.774            0   -10416.119     6088.572    737.83414    9.0362086    9.0362086    9.0362086    51.922948 
  373400    299.57492   -11317.126            0   -10425.043    1136.3818    739.56221    9.0432576    9.0432576    9.0432576    47.449551 
  373500    300.67043   -11329.127            0   -10433.781   -10076.263    741.72614    9.0520691    9.0520691    9.0520691    41.302422 
  373600     298.7312   -11329.082            0   -10439.511   -27031.354    743.60079    9.0596888    9.0596888    9.0596888    59.149692 
  373700      294.468   -11320.282            0   -10443.406   -18566.715     744.2574    9.0623546    9.0623546    9.0623546    50.475051 
  373800    288.44941   -11303.642            0   -10444.689   -19547.004    743.77319    9.0603889    9.0603889    9.0603889    48.600231 
  373900     290.9165   -11311.176            0   -10444.876   -10616.598    742.09068    9.0535518    9.0535518    9.0535518    48.942004 
  374000    282.06661   -11281.346            0     -10441.4    4336.1882    739.50055    9.0430063    9.0430063    9.0430063    51.843031 
  374100    297.79326   -11323.447            0    -10436.67     18818.79    736.96443    9.0326568    9.0326568    9.0326568    54.011073 
  374200    294.15636   -11304.795            0   -10428.848    23172.939    735.40968    9.0263004    9.0263004    9.0263004    45.733422 
  374300    288.56175   -11276.315            0   -10417.027    13544.141    735.22747    9.0255548    9.0255548    9.0255548    49.666078 
  374400    301.47524   -11305.269            0   -10407.528   -1716.2396    736.31659    9.0300093    9.0300093    9.0300093     43.84218 
  374500     294.4011   -11272.371            0   -10395.695    6159.8367    738.24125    9.0378703    9.0378703    9.0378703    61.278705 
  374600    294.86041   -11263.715            0   -10385.671    623.23981    740.59669    9.0474722    9.0474722    9.0474722    45.487395 
  374700    283.85722   -11222.548            0   -10377.269   -5043.9447    743.18633    9.0580053    9.0580053    9.0580053    51.797988 
  374800    299.02247   -11261.421            0   -10370.983   -4025.0426    745.92121    9.0691027    9.0691027    9.0691027    54.742039 
  374900    301.70357   -11263.095            0   -10364.674   -8401.9052    748.27978    9.0786513    9.0786513    9.0786513    50.684258 
  375000    298.75454   -11249.447            0   -10359.807    -11234.86    749.92187    9.0852875    9.0852875    9.0852875    59.654475 
  375100    291.99161   -11223.549            0   -10354.048   -8367.5507    750.71529    9.0884904    9.0884904    9.0884904    46.936577 
  375200    295.10961   -11230.351            0   -10351.564   -6414.7601    750.56351    9.0878779    9.0878779    9.0878779    61.743288 
  375300    297.95234   -11234.623            0   -10347.371   -10073.493     749.7228    9.0844835    9.0844835    9.0844835    46.259061 
  375400    303.17518   -11247.424            0    -10344.62   -11196.364    748.15177    9.0781336    9.0781336    9.0781336    65.351339 
  375500    301.85194   -11240.678            0   -10341.814    -14771.01    745.89173    9.0689832    9.0689832    9.0689832    48.675412 
  375600    302.31036   -11238.237            0   -10338.009     5306.014    743.13167    9.0577832    9.0577832    9.0577832    54.350668 
  375700    294.86757   -11215.729            0   -10337.664    10382.716     740.4372    9.0468226    9.0468226    9.0468226    46.094925 
  375800    302.80718   -11239.801            0   -10338.093     11853.86    738.39996    9.0385179    9.0385179    9.0385179    63.885828 
  375900    304.16957   -11242.882            0   -10337.117    20593.806    737.13394    9.0333493    9.0333493    9.0333493      47.2122 
  376000    311.12809   -11265.042            0   -10338.556    17461.356    737.14564    9.0333971    9.0333971    9.0333971    57.329611 
  376100    291.91636   -11208.017            0    -10338.74    15978.811    738.30558    9.0381328    9.0381328    9.0381328    52.353005 
  376200    300.27421   -11237.541            0   -10343.375    14757.726    740.33334    9.0463996    9.0463996    9.0463996    49.769335 
  376300    302.46304   -11249.686            0   -10349.003   -3407.9515    742.83767    9.0565886    9.0565886    9.0565886    46.257889 
  376400    304.53408   -11263.733            0   -10356.883   -10052.525    745.37904    9.0669048    9.0669048    9.0669048    55.744631 
  376500    297.24072   -11253.097            0   -10367.965   -18173.878    747.32133    9.0747735    9.0747735    9.0747735    44.252753 
  376600    292.23745   -11252.216            0   -10381.982   -27448.901    748.39086    9.0791005    9.0791005    9.0791005     58.30886 
  376700    288.92724   -11257.004            0   -10396.628   -17878.373    748.23133    9.0784554    9.0784554    9.0784554    43.409939 
  376800    291.58745   -11277.109            0   -10408.811   -24650.557    747.18858    9.0742361    9.0742361    9.0742361    49.393963 
  376900    292.33196   -11289.559            0   -10419.045   -4435.6571    745.12662    9.0658813    9.0658813    9.0658813    55.802904 
  377000     294.9303   -11302.417            0   -10424.165    5971.2319    742.40342    9.0548235    9.0548235    9.0548235    47.681689 
  377100    299.62076   -11320.105            0   -10427.885    8570.0421    739.78379    9.0441607    9.0441607    9.0441607     60.81961 
  377200    288.67048   -11288.647            0   -10429.036     -601.346    737.76967    9.0359454    9.0359454    9.0359454      51.3509 
  377300    304.53826   -11338.438            0   -10431.575    18025.668    736.32737    9.0300533    9.0300533    9.0300533    61.722841 
  377400    290.85763   -11296.237            0   -10430.113    26896.675    735.84956    9.0280997    9.0280997    9.0280997    50.522222 
  377500    301.52317   -11327.838            0   -10429.954    26518.123    736.66489    9.0314329    9.0314329    9.0314329     59.92335 
  377600    296.61713   -11310.966            0   -10427.691    945.38289    738.54618    9.0391145    9.0391145    9.0391145    47.918578 
  377700    292.40179   -11294.354            0   -10423.632   -2866.9034    740.56942    9.0473611    9.0473611    9.0473611    51.281939 
  377800    302.44834   -11319.498            0   -10418.858   -8959.7059    742.43663    9.0549585    9.0549585    9.0549585    63.898429 
  377900    292.23192   -11280.647            0    -10410.43    -9462.599    743.85864    9.0607359    9.0607359    9.0607359    49.374542 
  378000    294.50761   -11278.446            0   -10401.452   -10921.878    744.50678    9.0633667    9.0633667    9.0633667    60.175917 
  378100    287.83847   -11246.059            0   -10388.925   -8467.8605    744.36895    9.0628074    9.0628074    9.0628074    44.863416 
  378200    296.94562   -11261.053            0   -10376.799    7073.7622    743.64774    9.0598795    9.0598795    9.0598795    54.914113 
  378300    295.19674   -11240.743            0   -10361.697    855.56939    742.82653    9.0565433    9.0565433    9.0565433    59.680843 
  378400     309.1252   -11272.607            0   -10352.085   -535.41944    742.08096    9.0535123    9.0535123    9.0535123     48.00511 
  378500    313.13361   -11275.966            0   -10343.508    10603.924    741.37058    9.0506225    9.0506225    9.0506225    45.709692 
  378600    305.82926   -11250.734            0   -10340.027   -1521.9015    740.96383     9.048967     9.048967     9.048967    62.343793 
  378700    299.62323   -11231.478            0   -10339.252    5943.9465    740.95392    9.0489266    9.0489266    9.0489266    49.838307 
  378800    316.22976   -11282.714            0   -10341.036    2860.8686    741.11745    9.0495923    9.0495923    9.0495923    57.451715 
  378900    311.97235   -11273.017            0   -10344.017   -2512.3277    741.52854    9.0512652    9.0512652    9.0512652    44.392835 
  379000    306.91547   -11260.776            0   -10346.834   -1637.3754    741.81223    9.0524193    9.0524193    9.0524193    46.249683 
  379100    296.62047   -11234.608            0   -10351.323    3209.9689    741.84346    9.0525464    9.0525464    9.0525464    55.030372 
  379200    296.37647    -11238.82            0   -10356.261    -328.3318     741.9433    9.0529524    9.0529524    9.0529524    52.246669 
  379300    288.47321   -11219.731            0   -10360.707   -7878.2989    741.75087    9.0521697    9.0521697    9.0521697    50.685015 
  379400    313.00309   -11300.621            0   -10368.552    2991.9424    741.20473    9.0499475    9.0499475    9.0499475     58.95489 
  379500    306.42763   -11286.265            0   -10373.776    4816.5745    740.70589    9.0479168    9.0479168    9.0479168    49.994446 
  379600    287.83087   -11235.803            0   -10378.692    8063.2576    740.41786    9.0467439    9.0467439    9.0467439    58.494517 
  379700    286.63082   -11238.974            0   -10385.436    3382.4319    740.45902    9.0469115    9.0469115    9.0469115    47.358004 
  379800    290.94624    -11257.58            0   -10391.192    803.36193    740.91134    9.0487533    9.0487533    9.0487533    52.089994 
  379900    298.79422   -11286.473            0   -10396.715   -6636.0428    741.78267    9.0522991    9.0522991    9.0522991    50.175551 
  380000    288.85209   -11260.651            0   -10400.499    7420.3645    742.86532    9.0567009    9.0567009    9.0567009    47.560484 
  380100    304.06178   -11311.338            0   -10405.894   -16657.117    744.07308    9.0616065    9.0616065    9.0616065    54.742721 
  380200     290.5405   -11270.776            0   -10405.596   -24006.161    744.82651     9.064664     9.064664     9.064664    44.976717 
  380300    288.63592   -11265.887            0   -10406.378   -8845.9416    744.70855    9.0641854    9.0641854    9.0641854    55.422114 
  380400    304.21997   -11312.704            0   -10406.789   -8069.7526    743.92582    9.0610086    9.0610086    9.0610086    44.291248 
  380500     304.2328   -11310.679            0   -10404.726   -4254.2283    742.41875    9.0548858    9.0548858    9.0548858      62.1551 
  380600    298.83862   -11292.278            0   -10402.387    548.30828    740.53093    9.0472044    9.0472044    9.0472044     49.24397 
  380700    300.00018   -11291.386            0   -10398.037    4231.5615      738.953    9.0407738    9.0407738    9.0407738    66.203163 
  380800    299.14643   -11282.858            0   -10392.051    11341.978    737.97109    9.0367677    9.0367677    9.0367677    44.632918 
  380900    290.63489   -11250.334            0   -10384.873    16101.435    737.82943    9.0361894    9.0361894    9.0361894    46.841701 
  381000    296.98019   -11261.816            0   -10377.459    24213.419    738.67665    9.0396467    9.0396467    9.0396467    37.224915 
  381100    294.11169   -11245.293            0   -10369.478    9085.7365    740.63885    9.0476439    9.0476439    9.0476439    45.783877 
  381200     308.8861   -11281.627            0   -10361.817   -7064.5444    743.00146    9.0572542    9.0572542    9.0572542    60.815578 
  381300    294.98422   -11230.025            0   -10351.612   -2088.9029    745.05051    9.0655726    9.0655726    9.0655726    45.061652 
  381400     305.4453   -11253.551            0   -10343.987    -15821.01    746.40488    9.0710624    9.0710624    9.0710624    43.689003 
  381500    304.36672   -11242.086            0   -10335.734    -10756.55     746.9152    9.0731293    9.0731293    9.0731293    57.533861 
  381600    303.93776   -11233.317            0   -10328.243   -4666.7597    746.69235    9.0722268    9.0722268    9.0722268    41.485248 
  381700    304.84535     -11230.5            0   -10322.723   -10685.731    746.09425    9.0698039    9.0698039    9.0698039    61.190418 
  381800     304.6101   -11226.147            0    -10319.07    3492.6458    745.02396    9.0654649    9.0654649    9.0654649    52.099793 
  381900     309.1113   -11237.472            0   -10316.992    1817.9168     743.7712    9.0603808    9.0603808    9.0603808    56.369704 
  382000    317.51728   -11262.897            0   -10317.384   -787.31386    742.54456    9.0553972    9.0553972    9.0553972    49.544391 
  382100     301.7823   -11217.304            0   -10318.648    13392.449    741.47149    9.0510331    9.0510331    9.0510331    63.512312 
  382200    300.93552   -11216.911            0   -10320.776    4586.7461    740.76586     9.048161     9.048161     9.048161    49.237876 
  382300    317.25028   -11273.284            0   -10328.566    19675.124    740.34381    9.0464423    9.0464423    9.0464423    48.351296 
  382400    300.16741   -11230.857            0   -10337.009   -9389.8019    740.49378    9.0470531    9.0470531    9.0470531     48.77345 
  382500    301.99979   -11249.035            0   -10349.731    13864.743    740.87063    9.0485875    9.0485875    9.0485875    46.375394 
  382600    298.80681   -11254.235            0   -10364.439    2135.0005    741.77573    9.0522708    9.0522708    9.0522708    42.710286 
  382700    300.93766   -11275.244            0   -10379.103    -4164.482    742.86597    9.0567036    9.0567036    9.0567036    46.852092 
  382800    298.42006   -11278.789            0   -10390.145   -18896.215    743.68127    9.0600157    9.0600157    9.0600157    62.488811 
  382900    303.84587    -11303.24            0   -10398.439   -1627.5129     743.6446    9.0598667    9.0598667    9.0598667    52.502066 
  383000     315.0624   -11342.381            0   -10404.179   -6287.5802    742.71763    9.0561007    9.0561007    9.0561007    59.441226 
Loop time of 1918.57 on 16 procs for 100000 steps with 1000 atoms

Performance: 4.503 ns/day, 5.329 hours/ns, 52.122 timesteps/s
94.9% CPU use with 16 MPI tasks x no OpenMP threads

MPI task timing breakdown:
Section |  min time  |  avg time  |  max time  |%varavg| %total
---------------------------------------------------------------
Pair    | 229.76     | 246.07     | 263.13     |  65.3 | 12.83
Neigh   | 77.383     | 82.584     | 88.246     |  39.2 |  4.30
Comm    | 84.985     | 107.23     | 128.75     | 131.9 |  5.59
Output  | 988.61     | 1019.4     | 1476.4     | 369.5 | 53.13
Modify  | 5.4074     | 462.42     | 493.27     | 548.7 | 24.10
Other   |            | 0.8438     |            |       |  0.04

Nlocal:    62.5 ave 70 max 56 min
Histogram: 1 1 2 1 3 5 0 1 1 1
Nghost:    1941.38 ave 1964 max 1916 min
Histogram: 1 1 1 2 2 1 4 3 0 1
Neighs:    0 ave 0 max 0 min
Histogram: 16 0 0 0 0 0 0 0 0 0
FullNghs:  19848.6 ave 22452 max 17693 min
Histogram: 1 1 2 3 3 3 0 1 1 1

Total # of neighbors = 317578
Ave neighs/atom = 317.578
Neighbor list builds = 100000
Dangerous builds not checked
Total wall time: 2:03:23
