LAMMPS (16 Mar 2018)
Reading data file ...
  orthogonal box = (-4.70563 -4.70563 -4.70563) to (4.70563 4.70563 4.70563)
  2 by 2 by 4 MPI processor grid
  reading atoms ...
  1000 atoms
Reading potential file /home/fs01/ajm529/lammps-16Mar18/potentials/sw_potentials/AG/eps2.23.sw with DATE: 2008-01-29
Neighbor list info ...
  update every 1 steps, delay 0 steps, check no
  max neighbors/atom: 2000, page size: 100000
  master list distance cutoff = 3.836
  ghost atom cutoff = 3.836
  binsize = 1.918, bins = 5 5 5
  1 neighbor lists, perpetual/occasional/extra = 1 0 0
  (1) pair sw, perpetual
      attributes: full, newton on
      pair build: full/bin/atomonly
      stencil: full/bin/3d
      bin: standard
Setting up Verlet run ...
  Unit style    : real
  Current step  : 0
  Time step     : 1
Per MPI rank memory allocation (min/avg/max) = 3.519 | 3.52 | 3.521 Mbytes
Step Temp E_pair E_mol TotEng Press Volume Lx Ly Lz S/CPU 
       0          300   -10085.716            0    -9192.367   -21944.614    833.57254    9.4112606    9.4112606    9.4112606            0 
     100    323.26998   -10160.004            0   -9197.3611   -39547.641    831.94867    9.4051453    9.4051453    9.4051453    40.322402 
     200    329.51376   -10193.135            0   -9211.8988   -25905.075    827.62927    9.3888402    9.3888402    9.3888402    34.409134 
     300    341.14645   -10250.847            0   -9234.9709   -28037.784    821.28361     9.364783     9.364783     9.364783    37.758533 
     400     325.9712   -10228.397            0   -9257.7106    6941.6085    813.92674    9.3367366    9.3367366    9.3367366    39.947767 
     500    334.73916   -10274.288            0   -9277.4915    4728.3867    806.39828    9.3078605    9.3078605    9.3078605    36.891781 
     600    337.23739   -10298.203            0   -9293.9676     2148.188     799.4214    9.2809391    9.2809391    9.2809391    42.452362 
     700    331.60799   -10298.798            0   -9311.3261    9466.6522    793.44542    9.2577551    9.2577551    9.2577551    35.915486 
     800    334.63761    -10328.32            0   -9331.8262    10575.115    788.86569    9.2399089    9.2399089    9.2399089    39.843916 
     900    323.65638   -10318.289            0   -9354.4952    12631.407     785.7534    9.2277416    9.2277416    9.2277416    37.175249 
    1000    333.99883   -10371.276            0   -9376.6845    8890.1241    783.93661     9.220624     9.220624     9.220624    38.862438 
Loop time of 26.1614 on 16 procs for 1000 steps with 1000 atoms

Performance: 3.303 ns/day, 7.267 hours/ns, 38.224 timesteps/s
94.2% CPU use with 16 MPI tasks x no OpenMP threads

MPI task timing breakdown:
Section |  min time  |  avg time  |  max time  |%varavg| %total
---------------------------------------------------------------
Pair    | 1.762      | 1.8171     | 1.8775     |   2.4 |  6.95
Neigh   | 0.73261    | 0.74819    | 0.76025    |   1.0 |  2.86
Comm    | 0.79582    | 0.85936    | 0.92126    |   4.2 |  3.28
Output  | 15.593     | 16.04      | 22.678     |  42.8 | 61.31
Modify  | 0.048668   | 6.6877     | 7.1349     |  66.3 | 25.56
Other   |            | 0.009012   |            |       |  0.03

Nlocal:    62.5 ave 66 max 56 min
Histogram: 1 1 0 1 0 0 3 3 3 4
Nghost:    1852.5 ave 1875 max 1832 min
Histogram: 3 1 0 1 3 2 3 1 1 1
Neighs:    0 ave 0 max 0 min
Histogram: 16 0 0 0 0 0 0 0 0 0
FullNghs:  18832.2 ave 19773 max 16917 min
Histogram: 2 0 0 1 0 1 3 2 3 4

Total # of neighbors = 301316
Ave neighs/atom = 301.316
Neighbor list builds = 1000
Dangerous builds not checked
Setting up Verlet run ...
  Unit style    : real
  Current step  : 1000
  Time step     : 1
Per MPI rank memory allocation (min/avg/max) = 3.521 | 4.26 | 4.579 Mbytes
Step Temp E_pair E_mol TotEng Press Volume Lx Ly Lz S/CPU 
    1000    333.99883   -10371.276            0   -9376.6845    8890.1241    783.93661     9.220624     9.220624     9.220624            0 
    1100    321.12173   -10355.215            0   -9398.9694    2226.9875    783.00286    9.2169617    9.2169617    9.2169617     32.04074 
    1200    323.25222   -10383.918            0   -9421.3278    1321.3058     782.6044     9.215398     9.215398     9.215398    38.990374 
    1300    313.88691   -10377.474            0   -9442.7725    1398.1383    782.70612    9.2157972    9.2157972    9.2157972     39.85687 
    1400     313.4981   -10396.889            0   -9463.3451   -12981.567    783.10817    9.2173749    9.2173749    9.2173749    31.992188 
    1500    298.37481   -10370.791            0   -9482.2819    -1547.093    783.48146    9.2188392    9.2188392    9.2188392    44.530899 
    1600    317.15102   -10445.872            0   -9501.4505    1471.6698    783.98727    9.2208227    9.2208227    9.2208227    43.074605 
    1700    307.83481   -10436.249            0   -9519.5696     15965.61    784.72924    9.2237306    9.2237306    9.2237306    38.065057 
    1800    309.84169   -10458.772            0   -9536.1167    5213.6259    785.63278    9.2272694    9.2272694    9.2272694    32.520429 
    1900    297.97098   -10437.872            0   -9550.5649    4670.0262    786.48101     9.230589     9.230589     9.230589    33.105361 
    2000    292.56322    -10433.88            0   -9562.6765    -2892.115    787.22899    9.2335143    9.2335143    9.2335143    37.145328 
Loop time of 27.3026 on 16 procs for 1000 steps with 1000 atoms

Performance: 3.165 ns/day, 7.584 hours/ns, 36.627 timesteps/s
94.2% CPU use with 16 MPI tasks x no OpenMP threads

MPI task timing breakdown:
Section |  min time  |  avg time  |  max time  |%varavg| %total
---------------------------------------------------------------
Pair    | 1.9443     | 2.0179     | 2.1258     |   3.4 |  7.39
Neigh   | 0.76399    | 0.79308    | 0.83228    |   1.8 |  2.90
Comm    | 0.75999    | 0.89253    | 0.9851     |   6.6 |  3.27
Output  | 16.172     | 16.635     | 23.522     |  43.6 | 60.93
Modify  | 0.067848   | 6.9544     | 7.4179     |  67.4 | 25.47
Other   |            | 0.009282   |            |       |  0.03

Nlocal:    62.5 ave 68 max 59 min
Histogram: 2 3 1 2 3 1 2 1 0 1
Nghost:    1849.44 ave 1860 max 1835 min
Histogram: 1 0 1 0 1 5 4 1 2 1
Neighs:    0 ave 0 max 0 min
Histogram: 16 0 0 0 0 0 0 0 0 0
FullNghs:  18744.2 ave 20572 max 17481 min
Histogram: 2 3 2 2 1 2 1 2 0 1

Total # of neighbors = 299908
Ave neighs/atom = 299.908
Neighbor list builds = 1000
Dangerous builds not checked
Setting up Verlet run ...
  Unit style    : real
  Current step  : 2000
  Time step     : 1
Per MPI rank memory allocation (min/avg/max) = 3.771 | 4.528 | 4.58 Mbytes
Step Temp E_pair E_mol TotEng Press Volume Lx Ly Lz S/CPU 
    2000    292.56322    -10433.88            0   -9562.6765    -2892.115    787.22899    9.2335143    9.2335143    9.2335143            0 
    2100    291.12067   -10442.185            0   -9575.2774   -8847.1269    787.93227    9.2362631    9.2362631    9.2362631    45.947559 
    2200    296.69514   -10470.179            0    -9586.672   -8263.0185    788.33756    9.2378464    9.2378464    9.2378464    35.161885 
    2300    303.87778    -10502.14            0   -9597.2441   -14316.316    787.97102    9.2364145    9.2364145    9.2364145    36.113745 
    2400     300.7071   -10502.195            0   -9606.7406   -16462.443    786.73773    9.2315932    9.2315932    9.2315932    50.710441 
    2500     306.8559   -10529.207            0   -9615.4428     12455.02    784.73262    9.2237439    9.2237439    9.2237439     35.78827 
    2600    301.78292   -10521.762            0   -9623.1043   -2446.4423    782.78918    9.2161232    9.2161232    9.2161232    36.283009 
    2700    296.80818   -10515.755            0   -9631.9112    5727.2642    780.96136    9.2089444    9.2089444    9.2089444    46.312694 
    2800    298.97372   -10530.221            0   -9639.9279    7947.4554    779.06548    9.2014864    9.2014864    9.2014864    29.775611 
    2900    298.52248    -10535.66            0   -9646.7106    9815.9579    777.38146    9.1948517    9.1948517    9.1948517    42.746291 
    3000    294.60163   -10530.233            0   -9652.9597    16034.553    776.37955    9.1908997    9.1908997    9.1908997    29.553973 
Loop time of 26.5524 on 16 procs for 1000 steps with 1000 atoms

Performance: 3.254 ns/day, 7.376 hours/ns, 37.661 timesteps/s
94.2% CPU use with 16 MPI tasks x no OpenMP threads

MPI task timing breakdown:
Section |  min time  |  avg time  |  max time  |%varavg| %total
---------------------------------------------------------------
Pair    | 1.9109     | 2.0144     | 2.0778     |   3.1 |  7.59
Neigh   | 0.7635     | 0.79611    | 0.8235     |   1.7 |  3.00
Comm    | 0.75868    | 0.8449     | 0.98152    |   6.3 |  3.18
Output  | 16.089     | 16.514     | 22.804     |  40.0 | 62.19
Modify  | 0.091966   | 6.3735     | 6.7987     |  64.2 | 24.00
Other   |            | 0.009294   |            |       |  0.04

Nlocal:    62.5 ave 69 max 59 min
Histogram: 4 2 2 0 3 1 0 2 0 2
Nghost:    1871.56 ave 1879 max 1863 min
Histogram: 2 1 2 1 1 2 1 1 3 2
Neighs:    0 ave 0 max 0 min
Histogram: 16 0 0 0 0 0 0 0 0 0
FullNghs:  19011.4 ave 21025 max 17794 min
Histogram: 5 1 2 0 3 1 1 1 1 1

Total # of neighbors = 304182
Ave neighs/atom = 304.182
Neighbor list builds = 1000
Dangerous builds not checked
Setting up Verlet run ...
  Unit style    : real
  Current step  : 3000
  Time step     : 1
Per MPI rank memory allocation (min/avg/max) = 4.578 | 4.579 | 4.58 Mbytes
Step Temp E_pair E_mol TotEng Press Volume Lx Ly Lz S/CPU 
    3000    294.60163   -10530.233            0   -9652.9597    16034.553    776.37955    9.1908997    9.1908997    9.1908997            0 
    3100    303.07158   -10559.933            0   -9657.4373   -910.86366    776.19485    9.1901708    9.1901708    9.1901708    27.144757 
    3200    289.77365   -10525.399            0   -9662.5022    33.586037    776.42557    9.1910814    9.1910814    9.1910814    25.786166 
    3300    293.52774   -10539.114            0   -9665.0387    87.244341    776.92673    9.1930584    9.1930584    9.1930584    33.060487 
    3400    291.65348   -10535.885            0   -9667.3907    -3603.723    777.26778    9.1944034    9.1944034    9.1944034    29.734613 
    3500    291.67014     -10536.5            0   -9667.9557    6890.7843    777.74495    9.1962845    9.1962845    9.1962845    41.663443 
    3600    280.98797   -10502.884            0   -9666.1502    11508.193    778.41601    9.1989287    9.1989287    9.1989287    41.204664 
    3700    299.38475     -10554.5            0   -9662.9829    4503.2935    779.30699    9.2024371    9.2024371    9.2024371    31.815515 
    3800    307.47488   -10573.963            0   -9658.3549    4608.9151    780.63106    9.2076459    9.2076459    9.2076459    45.188522 
    3900    295.83431   -10532.516            0    -9651.572   -8075.2984     782.4471    9.2147805    9.2147805    9.2147805     26.50131 
    4000    296.73997   -10527.034            0   -9643.3927   -5818.8838    784.09544    9.2212467    9.2212467    9.2212467    44.294426 
Loop time of 30.1641 on 16 procs for 1000 steps with 1000 atoms

Performance: 2.864 ns/day, 8.379 hours/ns, 33.152 timesteps/s
94.2% CPU use with 16 MPI tasks x no OpenMP threads

MPI task timing breakdown:
Section |  min time  |  avg time  |  max time  |%varavg| %total
---------------------------------------------------------------
Pair    | 1.8758     | 1.9988     | 2.0922     |   4.7 |  6.63
Neigh   | 0.73957    | 0.7854     | 0.80876    |   2.5 |  2.60
Comm    | 0.7777     | 0.89189    | 1.0592     |   9.1 |  2.96
Output  | 19.057     | 19.52      | 26.383     |  40.1 | 64.71
Modify  | 0.095131   | 6.958      | 7.4209     |  67.2 | 23.07
Other   |            | 0.009533   |            |       |  0.03

Nlocal:    62.5 ave 67 max 58 min
Histogram: 2 1 0 3 3 1 1 2 2 1
Nghost:    1861.38 ave 1878 max 1843 min
Histogram: 2 0 1 1 3 2 2 1 3 1
Neighs:    0 ave 0 max 0 min
Histogram: 16 0 0 0 0 0 0 0 0 0
FullNghs:  18819.6 ave 20126 max 17333 min
Histogram: 1 2 0 3 3 1 0 1 2 3

Total # of neighbors = 301114
Ave neighs/atom = 301.114
Neighbor list builds = 1000
Dangerous builds not checked
Setting up Verlet run ...
  Unit style    : real
  Current step  : 4000
  Time step     : 1
Per MPI rank memory allocation (min/avg/max) = 4.578 | 4.579 | 4.581 Mbytes
Step Temp E_pair E_mol TotEng Press Volume Lx Ly Lz S/CPU 
    4000    296.73997   -10527.034            0   -9643.3927   -5818.8838    784.09544    9.2212467    9.2212467    9.2212467            0 
    4100    294.74864   -10513.195            0   -9635.4837   -4819.4179    785.48078    9.2266742    9.2266742    9.2266742    36.571906 
    4200    301.20281   -10523.867            0   -9626.9362   -2697.9257    786.86947    9.2321085    9.2321085    9.2321085    41.951743 
    4300    298.35377    -10505.33            0   -9616.8838   -5272.9785    788.25624    9.2375288    9.2375288    9.2375288    47.038077 
    4400    304.31129   -10514.881            0   -9608.6937   -9834.2882    789.20414    9.2412301    9.2412301    9.2412301    30.530229 
    4500    297.99341   -10486.607            0   -9599.2331   -20123.965    789.52628    9.2424873    9.2424873    9.2424873    44.977374 
    4600    309.75409   -10513.033            0   -9590.6381   -10059.019    788.75793    9.2394881    9.2394881    9.2394881    34.400068 
    4700    311.21967   -10511.115            0   -9584.3557     2441.046    787.18729    9.2333513    9.2333513    9.2333513    48.574909 
    4800    308.82423   -10499.511            0   -9579.8855   -12312.293    785.27507    9.2258687    9.2258687    9.2258687    42.723825 
    4900    304.97454   -10484.043            0   -9575.8808     19993.47    783.44844    9.2187097    9.2187097    9.2187097    37.503682 
    5000    320.30843   -10529.964            0   -9576.1402    8013.7291     781.7524    9.2120526    9.2120526    9.2120526    44.465784 
Loop time of 24.9644 on 16 procs for 1000 steps with 1000 atoms

Performance: 3.461 ns/day, 6.935 hours/ns, 40.057 timesteps/s
94.3% CPU use with 16 MPI tasks x no OpenMP threads

MPI task timing breakdown:
Section |  min time  |  avg time  |  max time  |%varavg| %total
---------------------------------------------------------------
Pair    | 1.8068     | 1.9415     | 2.0362     |   4.9 |  7.78
Neigh   | 0.73916    | 0.77232    | 0.7971     |   2.1 |  3.09
Comm    | 0.7564     | 0.87351    | 1.036      |   9.1 |  3.50
Output  | 14.803     | 15.214     | 21.316     |  40.4 | 60.94
Modify  | 0.051166   | 6.1534     | 6.5643     |  63.5 | 24.65
Other   |            | 0.009147   |            |       |  0.04

Nlocal:    62.5 ave 67 max 59 min
Histogram: 1 2 2 3 0 3 3 1 0 1
Nghost:    1863.12 ave 1879 max 1852 min
Histogram: 2 1 3 1 3 4 1 0 0 1
Neighs:    0 ave 0 max 0 min
Histogram: 16 0 0 0 0 0 0 0 0 0
FullNghs:  18895.6 ave 20307 max 17801 min
Histogram: 2 1 1 4 1 4 1 1 0 1

Total # of neighbors = 302330
Ave neighs/atom = 302.33
Neighbor list builds = 1000
Dangerous builds not checked
Setting up Verlet run ...
  Unit style    : real
  Current step  : 5000
  Time step     : 1
Per MPI rank memory allocation (min/avg/max) = 4.578 | 4.579 | 4.581 Mbytes
Step Temp E_pair E_mol TotEng Press Volume Lx Ly Lz S/CPU 
    5000    320.30843   -10529.964            0   -9576.1402    8013.7291     781.7524    9.2120526    9.2120526    9.2120526            0 
    5100    313.50492   -10511.456            0   -9577.8923    6758.9045    780.23362     9.206083     9.206083     9.206083    35.398286 
    5200    296.42403   -10462.098            0   -9579.3983    10287.392    779.27226    9.2023004    9.2023004    9.2023004    43.680032 
    5300    304.71927   -10491.737            0   -9584.3351   -3637.8617    778.84409    9.2006147    9.2006147    9.2006147    34.519213 
    5400     308.4579   -10512.465            0   -9593.9305    5945.3337    778.62742    9.1997614    9.1997614    9.1997614    41.047001 
    5500     304.3334   -10510.224            0    -9603.971    7924.8315    778.89975    9.2008339    9.2008339    9.2008339    32.818323 
    5600    317.47098   -10562.891            0    -9617.517     3846.394    779.39343    9.2027773    9.2027773    9.2027773    45.703819 
    5700    298.84624   -10517.787            0   -9627.8744    7544.1072    780.42836    9.2068489    9.2068489    9.2068489    39.261023 
    5800    292.83101   -10510.564            0   -9638.5628   -9323.4198    781.68795    9.2117994    9.2117994    9.2117994    33.396245 
    5900    287.09167   -10501.261            0   -9646.3512    4557.5555     782.6275    9.2154886    9.2154886    9.2154886    40.537788 
    6000    300.68292   -10546.785            0   -9651.4029    942.44765    783.44676    9.2187031    9.2187031    9.2187031    39.052363 
Loop time of 26.2515 on 16 procs for 1000 steps with 1000 atoms

Performance: 3.291 ns/day, 7.292 hours/ns, 38.093 timesteps/s
94.3% CPU use with 16 MPI tasks x no OpenMP threads

MPI task timing breakdown:
Section |  min time  |  avg time  |  max time  |%varavg| %total
---------------------------------------------------------------
Pair    | 1.8556     | 1.951      | 2.0548     |   3.9 |  7.43
Neigh   | 0.73797    | 0.76574    | 0.80199    |   2.0 |  2.92
Comm    | 0.71131    | 0.85106    | 0.9596     |   7.7 |  3.24
Output  | 15.49      | 15.939     | 22.616     |  43.2 | 60.72
Modify  | 0.058085   | 6.7351     | 7.1848     |  66.4 | 25.66
Other   |            | 0.009185   |            |       |  0.03

Nlocal:    62.5 ave 68 max 57 min
Histogram: 1 2 4 0 1 1 1 3 1 2
Nghost:    1864.62 ave 1894 max 1839 min
Histogram: 1 1 2 1 4 3 2 1 0 1
Neighs:    0 ave 0 max 0 min
Histogram: 16 0 0 0 0 0 0 0 0 0
FullNghs:  18851.8 ave 20572 max 17242 min
Histogram: 2 0 5 1 1 0 1 4 0 2

Total # of neighbors = 301628
Ave neighs/atom = 301.628
Neighbor list builds = 1000
Dangerous builds not checked
Setting up Verlet run ...
  Unit style    : real
  Current step  : 6000
  Time step     : 1
Per MPI rank memory allocation (min/avg/max) = 4.578 | 4.579 | 4.581 Mbytes
Step Temp E_pair E_mol TotEng Press Volume Lx Ly Lz S/CPU 
    6000    300.68292   -10546.785            0   -9651.4029    942.44765    783.44676    9.2187031    9.2187031    9.2187031            0 
    6100    294.88228   -10530.541            0    -9652.432   -3015.8955    784.38327    9.2223749    9.2223749    9.2223749    42.737982 
    6200    295.16306    -10532.78            0   -9653.8349   -9301.2554    785.42598    9.2264597    9.2264597    9.2264597    33.143846 
    6300    301.10763   -10548.832            0   -9652.1848   -7267.9333    786.25133    9.2296904    9.2296904    9.2296904    40.900014 
    6400    290.71196   -10514.411            0   -9648.7204   -6398.3047     786.4706    9.2305483    9.2305483    9.2305483    37.606754 
    6500    301.34746   -10543.121            0   -9645.7593    4278.4092    785.93259     9.228443     9.228443     9.228443    42.600835 
    6600    297.75791   -10527.567            0   -9640.8949    4722.6293    785.24854    9.2257648    9.2257648    9.2257648    39.784406 
    6700    292.50198   -10506.479            0   -9635.4582    2042.3452     784.6394    9.2233786    9.2233786    9.2233786    37.496203 
    6800     301.7498   -10528.713            0   -9630.1535    2659.9979    784.20726    9.2216851    9.2216851    9.2216851    34.351367 
    6900    295.63784   -10505.484            0    -9625.125   -1388.2929    784.03145    9.2209959    9.2209959    9.2209959    37.917537 
    7000    295.22307   -10500.569            0   -9621.4446    7387.6095    783.93628    9.2206228    9.2206228    9.2206228    40.882528 
Loop time of 25.9834 on 16 procs for 1000 steps with 1000 atoms

Performance: 3.325 ns/day, 7.218 hours/ns, 38.486 timesteps/s
94.3% CPU use with 16 MPI tasks x no OpenMP threads

MPI task timing breakdown:
Section |  min time  |  avg time  |  max time  |%varavg| %total
---------------------------------------------------------------
Pair    | 1.8831     | 1.9713     | 2.098      |   4.4 |  7.59
Neigh   | 0.74679    | 0.77921    | 0.82028    |   2.0 |  3.00
Comm    | 0.71466    | 0.86943    | 0.98544    |   7.9 |  3.35
Output  | 15.101     | 15.551     | 22.243     |  43.8 | 59.85
Modify  | 0.098014   | 6.8033     | 7.2564     |  66.4 | 26.18
Other   |            | 0.009212   |            |       |  0.04

Nlocal:    62.5 ave 68 max 56 min
Histogram: 2 0 0 0 4 4 1 3 1 1
Nghost:    1846.75 ave 1868 max 1833 min
Histogram: 2 4 0 3 1 2 0 3 0 1
Neighs:    0 ave 0 max 0 min
Histogram: 16 0 0 0 0 0 0 0 0 0
FullNghs:  18819.9 ave 20499 max 16749 min
Histogram: 2 0 0 1 3 3 2 3 1 1

Total # of neighbors = 301118
Ave neighs/atom = 301.118
Neighbor list builds = 1000
Dangerous builds not checked
Setting up Verlet run ...
  Unit style    : real
  Current step  : 7000
  Time step     : 1
Per MPI rank memory allocation (min/avg/max) = 4.578 | 4.579 | 4.581 Mbytes
Step Temp E_pair E_mol TotEng Press Volume Lx Ly Lz S/CPU 
    7000    295.22307   -10500.569            0   -9621.4446    7387.6095    783.93628    9.2206228    9.2206228    9.2206228            0 
    7100    301.17109   -10514.975            0   -9618.1393    4540.4145    783.58026    9.2192267    9.2192267    9.2192267    37.315325 
    7200    305.82117   -10525.696            0   -9615.0124   -2303.2684    783.21876    9.2178088    9.2178088    9.2178088    36.131875 
    7300    299.22139   -10502.496            0   -9611.4653   -9090.6905    782.54201    9.2151531    9.2151531    9.2151531    39.105826 
    7400    308.05832   -10526.349            0   -9609.0036    -2421.265    781.54869    9.2112523    9.2112523    9.2112523    36.603366 
    7500    299.48207   -10496.747            0   -9604.9408    14274.203    780.51396    9.2071855    9.2071855    9.2071855    38.761091 
    7600    299.17531   -10493.603            0     -9602.71   -7326.3922    779.71138    9.2040286    9.2040286    9.2040286    43.349372 
    7700    310.71729   -10525.077            0   -9599.8142   -3621.3711    779.04002    9.2013861    9.2013861    9.2013861    32.619318 
    7800    309.07685   -10514.572            0   -9594.1941    20557.514    778.69351    9.2000217    9.2000217    9.2000217    40.911138 
    7900     303.2317   -10490.534            0    -9587.562    10997.029    778.84772     9.200629     9.200629     9.200629    36.520793 
    8000    304.85001   -10485.716            0   -9577.9244    -157.4748    779.88257    9.2047021    9.2047021    9.2047021    45.781305 
Loop time of 26.0559 on 16 procs for 1000 steps with 1000 atoms

Performance: 3.316 ns/day, 7.238 hours/ns, 38.379 timesteps/s
94.3% CPU use with 16 MPI tasks x no OpenMP threads

MPI task timing breakdown:
Section |  min time  |  avg time  |  max time  |%varavg| %total
---------------------------------------------------------------
Pair    | 1.8812     | 1.9874     | 2.0681     |   3.6 |  7.63
Neigh   | 0.74691    | 0.78277    | 0.81411    |   1.9 |  3.00
Comm    | 0.81072    | 0.90978    | 1.0474     |   6.8 |  3.49
Output  | 16.021     | 16.418     | 22.297     |  37.5 | 63.01
Modify  | 0.05679    | 5.9484     | 6.3504     |  62.4 | 22.83
Other   |            | 0.009208   |            |       |  0.04

Nlocal:    62.5 ave 68 max 57 min
Histogram: 1 1 1 2 2 5 2 0 0 2
Nghost:    1860.94 ave 1886 max 1836 min
Histogram: 2 0 2 3 2 0 2 1 2 2
Neighs:    0 ave 0 max 0 min
Histogram: 16 0 0 0 0 0 0 0 0 0
FullNghs:  18921.2 ave 20519 max 17060 min
Histogram: 1 0 1 2 2 5 3 0 0 2

Total # of neighbors = 302740
Ave neighs/atom = 302.74
Neighbor list builds = 1000
Dangerous builds not checked
Setting up Verlet run ...
  Unit style    : real
  Current step  : 8000
  Time step     : 1
Per MPI rank memory allocation (min/avg/max) = 4.578 | 4.579 | 4.581 Mbytes
Step Temp E_pair E_mol TotEng Press Volume Lx Ly Lz S/CPU 
    8000    304.85001   -10485.716            0   -9577.9244    -157.4748    779.88257    9.2047021    9.2047021    9.2047021            0 
    8100    306.91213    -10480.32            0   -9566.3879   -5489.3094    781.79845    9.2122335    9.2122335    9.2122335    37.505867 
    8200    314.05689   -10486.243            0   -9551.0354   -3836.4771    784.23312    9.2217864    9.2217864    9.2217864     38.31578 
    8300    307.24115   -10450.734            0   -9535.8219    4998.6876    786.64934    9.2312475    9.2312475    9.2312475    33.114118 
    8400    316.94575   -10468.923            0   -9525.1123     6098.331     789.1191    9.2408982    9.2408982    9.2408982    34.538534 
    8500    314.42065   -10454.057            0   -9517.7656    6477.0627    791.62713    9.2506778    9.2506778    9.2506778      47.2775 
    8600    305.40925   -10423.422            0   -9513.9652   -2213.7809    794.28837    9.2610323    9.2610323    9.2610323    38.296613 
    8700    316.16438   -10455.075            0   -9513.5917   -8922.4294    796.67448    9.2702967    9.2702967    9.2702967    40.237283 
    8800    301.53635   -10411.997            0    -9514.073   -30107.578    798.33574    9.2767359    9.2767359    9.2767359    34.505502 
    8900    300.19363   -10411.475            0   -9517.5495   -6316.3796    798.48888     9.277329     9.277329     9.277329    42.021333 
    9000    309.02016   -10443.738            0   -9523.5284   -5662.2373    797.72701    9.2743774    9.2743774    9.2743774    48.456121 
Loop time of 25.7445 on 16 procs for 1000 steps with 1000 atoms

Performance: 3.356 ns/day, 7.151 hours/ns, 38.843 timesteps/s
94.3% CPU use with 16 MPI tasks x no OpenMP threads

MPI task timing breakdown:
Section |  min time  |  avg time  |  max time  |%varavg| %total
---------------------------------------------------------------
Pair    | 1.7978     | 1.9278     | 2.0209     |   4.3 |  7.49
Neigh   | 0.72533    | 0.772      | 0.80354    |   2.4 |  3.00
Comm    | 0.76872    | 0.8937     | 1.0704     |   8.4 |  3.47
Output  | 15.526     | 15.94      | 22.077     |  39.7 | 61.92
Modify  | 0.064651   | 6.202      | 6.6166     |  63.6 | 24.09
Other   |            | 0.009082   |            |       |  0.04

Nlocal:    62.5 ave 67 max 58 min
Histogram: 1 1 1 4 2 2 1 1 1 2
Nghost:    1830.62 ave 1857 max 1808 min
Histogram: 2 3 1 1 1 1 3 3 0 1
Neighs:    0 ave 0 max 0 min
Histogram: 16 0 0 0 0 0 0 0 0 0
FullNghs:  18501.2 ave 20161 max 16900 min
Histogram: 1 1 3 3 1 2 1 2 0 2

Total # of neighbors = 296020
Ave neighs/atom = 296.02
Neighbor list builds = 1000
Dangerous builds not checked
Setting up Verlet run ...
  Unit style    : real
  Current step  : 9000
  Time step     : 1
Per MPI rank memory allocation (min/avg/max) = 4.578 | 4.579 | 4.581 Mbytes
Step Temp E_pair E_mol TotEng Press Volume Lx Ly Lz S/CPU 
    9000    309.02016   -10443.738            0   -9523.5284   -5662.2373    797.72701    9.2743774    9.2743774    9.2743774            0 
    9100    302.31535   -10430.745            0   -9530.5019   -12107.338    796.54477    9.2697936    9.2697936    9.2697936    31.070604 
    9200    307.23328   -10454.188            0   -9539.2993   -7821.0504    794.68818     9.262586     9.262586     9.262586    44.344526 
    9300    304.26888   -10455.551            0   -9549.4902    67.248184    792.40852    9.2537205    9.2537205    9.2537205    33.208916 
    9400    308.83164   -10480.512            0   -9560.8643   -8410.2989    789.69522    9.2431465    9.2431465    9.2431465    41.292822 
    9500    301.84405   -10470.348            0    -9571.508    5626.6705    786.29503    9.2298614    9.2298614    9.2298614     39.55061 
    9600    306.24836   -10493.786            0   -9581.8312    9457.6596    782.98555    9.2168938    9.2168938    9.2168938    45.847805 
    9700    305.97919   -10499.805            0   -9588.6512    27569.784    780.34687    9.2065284    9.2065284    9.2065284    39.621474 
    9800    296.88289   -10478.766            0   -9594.6992    23621.758    778.76662    9.2003096    9.2003096    9.2003096    40.544389 
    9900    298.19356   -10486.629            0   -9598.6598     17533.87    778.26198    9.1983219    9.1983219    9.1983219    43.899298 
   10000     301.2442   -10499.596            0   -9602.5422    16842.419    778.24289    9.1982467    9.1982467    9.1982467    33.873711 
Loop time of 25.8365 on 16 procs for 1000 steps with 1000 atoms

Performance: 3.344 ns/day, 7.177 hours/ns, 38.705 timesteps/s
94.3% CPU use with 16 MPI tasks x no OpenMP threads

MPI task timing breakdown:
Section |  min time  |  avg time  |  max time  |%varavg| %total
---------------------------------------------------------------
Pair    | 1.8705     | 1.9708     | 2.0503     |   3.8 |  7.63
Neigh   | 0.74994    | 0.78176    | 0.8053     |   1.9 |  3.03
Comm    | 0.78596    | 0.89       | 1.0207     |   7.1 |  3.44
Output  | 16.093     | 16.474     | 22.101     |  35.8 | 63.76
Modify  | 0.073926   | 5.7104     | 6.0924     |  60.9 | 22.10
Other   |            | 0.009201   |            |       |  0.04

Nlocal:    62.5 ave 68 max 59 min
Histogram: 3 2 1 2 3 1 2 0 1 1
Nghost:    1868.75 ave 1884 max 1844 min
Histogram: 1 0 1 0 1 3 2 5 2 1
Neighs:    0 ave 0 max 0 min
Histogram: 16 0 0 0 0 0 0 0 0 0
FullNghs:  18962.9 ave 20624 max 17868 min
Histogram: 3 2 1 2 3 0 2 1 1 1

Total # of neighbors = 303406
Ave neighs/atom = 303.406
Neighbor list builds = 1000
Dangerous builds not checked
Setting up Verlet run ...
  Unit style    : real
  Current step  : 10000
  Time step     : 1
Per MPI rank memory allocation (min/avg/max) = 4.578 | 4.579 | 4.581 Mbytes
Step Temp E_pair E_mol TotEng Press Volume Lx Ly Lz S/CPU 
   10000     301.2442   -10499.596            0   -9602.5422    16842.419    778.24289    9.1982467    9.1982467    9.1982467            0 
   10100    297.75369   -10491.738            0   -9605.0787    2219.6066    779.12157    9.2017072    9.2017072    9.2017072    37.153392 
   10200    290.54545     -10471.8            0   -9606.6051   -1127.6444    780.58189    9.2074526    9.2074526    9.2074526    30.195353 
   10300    292.68108   -10478.099            0   -9606.5443    5969.3231    782.37015    9.2144784    9.2144784    9.2144784    41.756683 
   10400    306.59441    -10520.24            0   -9607.2539    2170.4644    784.61114    9.2232679    9.2232679    9.2232679    37.413762 
   10500    306.01567   -10517.207            0   -9605.9448    7296.8126    787.66944     9.235236     9.235236     9.235236    40.345618 
   10600    306.97306   -10520.074            0   -9605.9602   -240.07852    791.03946    9.2483882    9.2483882    9.2483882    39.911552 
   10700    295.50227   -10484.052            0   -9604.0964   -300.35427    793.98629    9.2598582    9.2598582    9.2598582    31.169734 
   10800    303.01494   -10505.647            0     -9603.32   -10465.194    796.41429    9.2692874    9.2692874    9.2692874    40.551119 
   10900     289.9971   -10463.879            0   -9600.3173   -19777.497    798.15095    9.2760201    9.2760201    9.2760201    44.563844 
   11000     296.4548   -10478.791            0   -9595.9996    -5018.586    798.70624    9.2781707    9.2781707    9.2781707     31.39848 
Loop time of 27.1582 on 16 procs for 1000 steps with 1000 atoms

Performance: 3.181 ns/day, 7.544 hours/ns, 36.821 timesteps/s
94.3% CPU use with 16 MPI tasks x no OpenMP threads

MPI task timing breakdown:
Section |  min time  |  avg time  |  max time  |%varavg| %total
---------------------------------------------------------------
Pair    | 1.8732     | 1.9411     | 2.0211     |   2.7 |  7.15
Neigh   | 0.75617    | 0.77322    | 0.79741    |   1.4 |  2.85
Comm    | 0.74317    | 0.84616    | 0.93155    |   5.4 |  3.12
Output  | 16.001     | 16.473     | 23.499     |  44.7 | 60.66
Modify  | 0.090911   | 7.1154     | 7.5878     |  68.0 | 26.20
Other   |            | 0.009178   |            |       |  0.03

Nlocal:    62.5 ave 68 max 59 min
Histogram: 2 4 1 2 1 3 0 1 0 2
Nghost:    1833.06 ave 1845 max 1819 min
Histogram: 1 3 2 0 0 2 3 1 0 4
Neighs:    0 ave 0 max 0 min
Histogram: 16 0 0 0 0 0 0 0 0 0
FullNghs:  18483.5 ave 20230 max 17423 min
Histogram: 3 3 2 2 1 2 0 1 0 2

Total # of neighbors = 295736
Ave neighs/atom = 295.736
Neighbor list builds = 1000
Dangerous builds not checked
Setting up Verlet run ...
  Unit style    : real
  Current step  : 11000
  Time step     : 1
Per MPI rank memory allocation (min/avg/max) = 4.578 | 4.579 | 4.581 Mbytes
Step Temp E_pair E_mol TotEng Press Volume Lx Ly Lz S/CPU 
   11000     296.4548   -10478.791            0   -9595.9996    -5018.586    798.70624    9.2781707    9.2781707    9.2781707            0 
   11100    299.34399   -10482.997            0    -9591.602   -22565.836    798.27013    9.2764817    9.2764817    9.2764817    35.812499 
   11200    297.39124   -10470.859            0   -9585.2787   -23978.288    796.46321    9.2694772    9.2694772    9.2694772    33.530051 
   11300    298.15835   -10464.356            0   -9576.4917   -8255.8978    793.39634    9.2575642    9.2575642    9.2575642    33.700198 
   11400     293.4632   -10437.268            0   -9563.3843    11149.386    789.83454      9.24369      9.24369      9.24369     33.32811 
   11500    303.06536   -10449.991            0   -9547.5143    10691.603    786.73711    9.2315908    9.2315908    9.2315908    33.729006 
   11600    310.66156    -10458.01            0   -9532.9133     11899.78    784.26467    9.2219101    9.2219101    9.2219101    30.156267 
   11700    311.64621   -10450.508            0    -9522.479    8691.0944    782.56913    9.2152595    9.2152595    9.2152595    38.491701 
   11800    307.52771   -10431.529            0   -9515.7644    13303.755     781.7252    9.2119457    9.2119457    9.2119457     35.75567 
   11900    309.88314   -10436.533            0   -9513.7538    9034.4704    781.74856    9.2120375    9.2120375    9.2120375    39.395155 
   12000    310.56823   -10440.403            0   -9515.5841    7475.3222    782.00155    9.2130311    9.2130311    9.2130311    38.293345 
Loop time of 28.568 on 16 procs for 1000 steps with 1000 atoms

Performance: 3.024 ns/day, 7.936 hours/ns, 35.004 timesteps/s
94.2% CPU use with 16 MPI tasks x no OpenMP threads

MPI task timing breakdown:
Section |  min time  |  avg time  |  max time  |%varavg| %total
---------------------------------------------------------------
Pair    | 1.7724     | 1.9292     | 2.0368     |   5.3 |  6.75
Neigh   | 0.734      | 0.76677    | 0.79609    |   2.1 |  2.68
Comm    | 0.7493     | 0.88606    | 1.0727     |   9.7 |  3.10
Output  | 17.623     | 18.082     | 24.894     |  41.4 | 63.29
Modify  | 0.082396   | 6.8948     | 7.3545     |  67.0 | 24.13
Other   |            | 0.009113   |            |       |  0.03

Nlocal:    62.5 ave 67 max 56 min
Histogram: 1 0 0 3 1 2 3 2 3 1
Nghost:    1853.19 ave 1874 max 1829 min
Histogram: 1 1 2 0 3 1 3 3 1 1
Neighs:    0 ave 0 max 0 min
Histogram: 16 0 0 0 0 0 0 0 0 0
FullNghs:  18865.8 ave 20458 max 16863 min
Histogram: 1 0 2 1 2 2 3 3 1 1

Total # of neighbors = 301852
Ave neighs/atom = 301.852
Neighbor list builds = 1000
Dangerous builds not checked
Setting up Verlet run ...
  Unit style    : real
  Current step  : 12000
  Time step     : 1
Per MPI rank memory allocation (min/avg/max) = 4.578 | 4.579 | 4.581 Mbytes
Step Temp E_pair E_mol TotEng Press Volume Lx Ly Lz S/CPU 
   12000    310.56823   -10440.403            0   -9515.5841    7475.3222    782.00155    9.2130311    9.2130311    9.2130311            0 
   12100    314.07382    -10454.13            0   -9518.8722   -1921.4483    782.71787    9.2158433    9.2158433    9.2158433    25.889322 
   12200    308.41957   -10442.431            0   -9524.0098    9.7465719    783.88278     9.220413     9.220413     9.220413    37.382651 
   12300     306.0363   -10442.064            0   -9530.7406    2167.9737    785.22735    9.2256818    9.2256818    9.2256818    43.132676 
   12400    304.49081   -10443.774            0   -9537.0521    1824.9018    786.64588    9.2312339    9.2312339    9.2312339    33.565195 
   12500    310.32108   -10469.993            0   -9545.9095    22181.037    788.35079    9.2378981    9.2378981    9.2378981    34.243683 
   12600    301.82974   -10452.191            0   -9553.3932    737.22043    790.87733    9.2477563    9.2477563    9.2477563     38.79386 
   12700    295.65869   -10439.617            0   -9559.1962   -4658.8436    793.56411    9.2582166    9.2582166    9.2582166    35.914659 
   12800    300.48116   -10459.011            0   -9564.2293   -25625.378    795.71771    9.2665842    9.2665842    9.2665842     42.57298 
   12900    309.07582   -10490.778            0   -9570.4027   -9812.8648    796.37731    9.2691439    9.2691439    9.2691439    37.860303 
   13000    308.79951   -10492.851            0   -9573.2987   -16521.265    795.82757    9.2670106    9.2670106    9.2670106    42.818089 
Loop time of 27.4434 on 16 procs for 1000 steps with 1000 atoms

Performance: 3.148 ns/day, 7.623 hours/ns, 36.439 timesteps/s
94.2% CPU use with 16 MPI tasks x no OpenMP threads

MPI task timing breakdown:
Section |  min time  |  avg time  |  max time  |%varavg| %total
---------------------------------------------------------------
Pair    | 1.8238     | 1.9119     | 2.0058     |   2.9 |  6.97
Neigh   | 0.74222    | 0.76307    | 0.79321    |   1.7 |  2.78
Comm    | 0.74979    | 0.87263    | 0.98217    |   5.6 |  3.18
Output  | 16.5       | 16.962     | 23.836     |  43.1 | 61.81
Modify  | 0.050749   | 6.9243     | 7.3871     |  67.4 | 25.23
Other   |            | 0.009099   |            |       |  0.03

Nlocal:    62.5 ave 68 max 58 min
Histogram: 2 2 2 1 2 0 2 2 0 3
Nghost:    1844.69 ave 1876 max 1819 min
Histogram: 4 1 0 2 1 3 1 1 2 1
Neighs:    0 ave 0 max 0 min
Histogram: 16 0 0 0 0 0 0 0 0 0
FullNghs:  18547.2 ave 20399 max 17139 min
Histogram: 3 2 2 2 0 2 1 1 1 2

Total # of neighbors = 296756
Ave neighs/atom = 296.756
Neighbor list builds = 1000
Dangerous builds not checked
Setting up Verlet run ...
  Unit style    : real
  Current step  : 13000
  Time step     : 1
Per MPI rank memory allocation (min/avg/max) = 4.578 | 4.579 | 4.581 Mbytes
Step Temp E_pair E_mol TotEng Press Volume Lx Ly Lz S/CPU 
   13000    308.79951   -10492.851            0   -9573.2987   -16521.265    795.82757    9.2670106    9.2670106    9.2670106            0 
   13100    289.89577   -10440.741            0   -9577.4809   -16516.604    793.87183    9.2594132    9.2594132    9.2594132    34.113055 
   13200    303.40805   -10484.754            0   -9581.2568   -3612.2564    790.41951    9.2459715    9.2459715    9.2459715    34.657004 
   13300    316.21877   -10527.414            0   -9585.7689   -12146.687    786.34201    9.2300451    9.2300451    9.2300451    32.781195 
   13400    301.01098   -10484.764            0   -9588.4048   -2471.4822    781.44185    9.2108326    9.2108326    9.2108326    35.753549 
   13500    313.18368   -10523.786            0    -9591.178    12324.621    776.28477    9.1905257    9.1905257    9.1905257    34.164329 
   13600    305.88384   -10505.796            0   -9594.9264    16322.775    772.16228     9.174228     9.174228     9.174228    42.326862 
   13700    309.23061   -10519.117            0   -9598.2806    27730.425    769.87801    9.1651724    9.1651724    9.1651724    33.795817 
   13800    307.72567   -10519.597            0   -9603.2423    33888.943    769.46853    9.1635472    9.1635472    9.1635472    39.183081 
   13900    307.63194   -10526.595            0   -9610.5196    31599.675    770.91249    9.1692756    9.1692756    9.1692756    41.774749 
   14000    301.94086   -10518.963            0   -9619.8351    4144.7048    773.84728    9.1808964    9.1808964    9.1808964    36.921982 
Loop time of 27.5672 on 16 procs for 1000 steps with 1000 atoms

Performance: 3.134 ns/day, 7.658 hours/ns, 36.275 timesteps/s
94.3% CPU use with 16 MPI tasks x no OpenMP threads

MPI task timing breakdown:
Section |  min time  |  avg time  |  max time  |%varavg| %total
---------------------------------------------------------------
Pair    | 1.8801     | 1.9857     | 2.1336     |   5.1 |  7.20
Neigh   | 0.74937    | 0.77647    | 0.8097     |   2.0 |  2.82
Comm    | 0.7071     | 0.88724    | 1.0204     |   9.6 |  3.22
Output  | 15.821     | 16.325     | 23.823     |  47.9 | 59.22
Modify  | 0.089931   | 7.5839     | 8.0902     |  70.3 | 27.51
Other   |            | 0.009179   |            |       |  0.03

Nlocal:    62.5 ave 72 max 55 min
Histogram: 2 2 1 1 3 3 2 0 1 1
Nghost:    1866.88 ave 1879 max 1854 min
Histogram: 1 1 4 1 1 0 2 1 3 2
Neighs:    0 ave 0 max 0 min
Histogram: 16 0 0 0 0 0 0 0 0 0
FullNghs:  19067.2 ave 22109 max 16808 min
Histogram: 3 1 1 3 1 3 2 0 1 1

Total # of neighbors = 305076
Ave neighs/atom = 305.076
Neighbor list builds = 1000
Dangerous builds not checked
Setting up Verlet run ...
  Unit style    : real
  Current step  : 14000
  Time step     : 1
Per MPI rank memory allocation (min/avg/max) = 4.578 | 4.579 | 4.581 Mbytes
Step Temp E_pair E_mol TotEng Press Volume Lx Ly Lz S/CPU 
   14000    301.94086   -10518.963            0   -9619.8351    4144.7048    773.84728    9.1808964    9.1808964    9.1808964            0 
   14100     296.4971   -10510.338            0   -9627.4198    3104.2662     777.4755    9.1952224    9.1952224    9.1952224    39.584744 
   14200     303.2743   -10537.427            0   -9634.3278   -17687.927    781.11047    9.2095304    9.2095304    9.2095304     33.43206 
   14300    300.62128   -10534.445            0   -9639.2459    -8124.944    784.19888    9.2216522    9.2216522    9.2216522    38.414773 
   14400    288.38018   -10500.942            0   -9642.1949   -21813.743    786.40903    9.2303074    9.2303074    9.2303074    31.747511 
   14500    299.57256   -10535.011            0   -9642.9353   -16180.521    787.25287    9.2336076    9.2336076    9.2336076    27.491237 
   14600    302.70623   -10545.536            0   -9644.1287   -4499.9068    786.88108    9.2321539    9.2321539    9.2321539    33.181248 
   14700    293.20985   -10515.947            0   -9642.8178     11877.89    785.96536    9.2285712    9.2285712    9.2285712    35.031518 
   14800    299.44122   -10533.317            0   -9641.6317    4720.9237    785.00243    9.2248009    9.2248009    9.2248009    35.473595 
   14900    292.83986   -10510.867            0   -9638.8398    2500.9831    783.84531    9.2202661    9.2202661    9.2202661    45.416676 
   15000     297.1512   -10519.735            0   -9634.8695    14806.338    782.50847    9.2150214    9.2150214    9.2150214    36.405477 
Loop time of 28.5439 on 16 procs for 1000 steps with 1000 atoms

Performance: 3.027 ns/day, 7.929 hours/ns, 35.034 timesteps/s
94.2% CPU use with 16 MPI tasks x no OpenMP threads

MPI task timing breakdown:
Section |  min time  |  avg time  |  max time  |%varavg| %total
---------------------------------------------------------------
Pair    | 1.8331     | 1.9646     | 2.1169     |   5.0 |  6.88
Neigh   | 0.74011    | 0.77576    | 0.82123    |   2.5 |  2.72
Comm    | 0.74484    | 0.94136    | 1.109      |   9.4 |  3.30
Output  | 17.857     | 18.294     | 24.754     |  39.0 | 64.09
Modify  | 0.097579   | 6.5585     | 6.9963     |  65.1 | 22.98
Other   |            | 0.009869   |            |       |  0.03

Nlocal:    62.5 ave 68 max 56 min
Histogram: 1 1 1 1 1 5 2 2 0 2
Nghost:    1856.44 ave 1870 max 1839 min
Histogram: 1 1 1 0 2 5 1 2 0 3
Neighs:    0 ave 0 max 0 min
Histogram: 16 0 0 0 0 0 0 0 0 0
FullNghs:  18870.4 ave 20641 max 16601 min
Histogram: 1 0 1 1 3 3 3 1 1 2

Total # of neighbors = 301926
Ave neighs/atom = 301.926
Neighbor list builds = 1000
Dangerous builds not checked
Setting up Verlet run ...
  Unit style    : real
  Current step  : 15000
  Time step     : 1
Per MPI rank memory allocation (min/avg/max) = 4.578 | 4.579 | 4.581 Mbytes
Step Temp E_pair E_mol TotEng Press Volume Lx Ly Lz S/CPU 
   15000     297.1512   -10519.735            0   -9634.8695    14806.338    782.50847    9.2150214    9.2150214    9.2150214            0 
   15100    297.62314   -10513.712            0   -9627.4411    1973.7791    781.35181    9.2104788    9.2104788    9.2104788    39.880128 
   15200    296.57373   -10499.133            0   -9615.9868    15987.529    780.76072    9.2081557    9.2081557    9.2081557    31.329506 
   15300    305.11102   -10503.593            0   -9595.0245    28597.857    781.20169    9.2098889    9.2098889    9.2098889    51.789391 
   15400    302.48595   -10470.441            0   -9569.6894     8061.966    782.18296    9.2137435    9.2137435    9.2137435    37.325541 
   15500    321.34674   -10508.799            0   -9551.8828    5580.5266    783.55107    9.2191122    9.2191122    9.2191122    34.890718 
   15600    313.35687    -10474.53            0   -9541.4069   -3625.2008    785.16031    9.2254193    9.2254193    9.2254193    47.379543 
   15700     310.3589   -10461.842            0   -9537.6463   -3095.6715    786.69302    9.2314183    9.2314183    9.2314183    34.143893 
   15800    309.38121   -10457.978            0   -9536.6939     1979.223    787.64095    9.2351247    9.2351247    9.2351247    41.277939 
   15900    309.74352   -10460.665            0   -9538.3019   -1569.9418    787.88789    9.2360897    9.2360897    9.2360897    31.093175 
   16000    309.89034   -10466.281            0   -9543.4807   -3424.3267    787.86541    9.2360019    9.2360019    9.2360019    46.983617 
Loop time of 25.9821 on 16 procs for 1000 steps with 1000 atoms

Performance: 3.325 ns/day, 7.217 hours/ns, 38.488 timesteps/s
94.3% CPU use with 16 MPI tasks x no OpenMP threads

MPI task timing breakdown:
Section |  min time  |  avg time  |  max time  |%varavg| %total
---------------------------------------------------------------
Pair    | 1.7666     | 1.9727     | 2.0544     |   4.9 |  7.59
Neigh   | 0.73321    | 0.77952    | 0.8072     |   2.0 |  3.00
Comm    | 0.81078    | 0.91747    | 1.1707     |   8.9 |  3.53
Output  | 15.204     | 15.646     | 22.179     |  42.6 | 60.22
Modify  | 0.1291     | 6.6576     | 7.0996     |  65.3 | 25.62
Other   |            | 0.009197   |            |       |  0.04

Nlocal:    62.5 ave 68 max 58 min
Histogram: 2 3 1 0 1 2 2 2 1 2
Nghost:    1846.12 ave 1865 max 1824 min
Histogram: 2 1 0 2 1 2 3 1 3 1
Neighs:    0 ave 0 max 0 min
Histogram: 16 0 0 0 0 0 0 0 0 0
FullNghs:  18721.9 ave 20337 max 17256 min
Histogram: 3 2 1 0 3 0 2 2 1 2

Total # of neighbors = 299550
Ave neighs/atom = 299.55
Neighbor list builds = 1000
Dangerous builds not checked
Setting up Verlet run ...
  Unit style    : real
  Current step  : 16000
  Time step     : 1
Per MPI rank memory allocation (min/avg/max) = 4.578 | 4.579 | 4.581 Mbytes
Step Temp E_pair E_mol TotEng Press Volume Lx Ly Lz S/CPU 
   16000    309.89034   -10466.281            0   -9543.4807   -3424.3267    787.86541    9.2360019    9.2360019    9.2360019            0 
   16100    306.25385   -10460.897            0   -9548.9257   -8311.8678    787.45435    9.2343953    9.2343953    9.2343953    39.906881 
   16200    309.47309   -10476.729            0   -9555.1707    2113.0251    786.53425    9.2307973    9.2307973    9.2307973    41.344102 
   16300    309.44891   -10484.406            0   -9562.9204   -4347.2207    785.41665    9.2264231    9.2264231    9.2264231    31.370726 
   16400    304.49152   -10478.202            0    -9571.478    5074.3314    784.51736    9.2229004    9.2229004    9.2229004    39.505109 
   16500    291.65279    -10447.85            0   -9579.3579    3573.1493    784.12382     9.221358     9.221358     9.221358     43.51952 
   16600     317.2989   -10533.722            0   -9588.8596    -527.1047    784.12534    9.2213639    9.2213639    9.2213639    40.275654 
   16700    296.78938   -10481.369            0   -9597.5812   -3027.4213    784.58135    9.2231512    9.2231512    9.2231512    41.848642 
   16800    305.84431   -10516.394            0    -9605.642   -4706.5041    785.14928    9.2253761    9.2253761    9.2253761    32.735165 
   16900     299.3996   -10506.435            0   -9614.8746   -16611.073    785.79726    9.2279133    9.2279133    9.2279133    35.249119 
   17000    302.46502   -10524.238            0   -9623.5489   -5693.0076    786.10282    9.2291092    9.2291092    9.2291092    43.302188 
Loop time of 26.015 on 16 procs for 1000 steps with 1000 atoms

Performance: 3.321 ns/day, 7.226 hours/ns, 38.439 timesteps/s
94.3% CPU use with 16 MPI tasks x no OpenMP threads

MPI task timing breakdown:
Section |  min time  |  avg time  |  max time  |%varavg| %total
---------------------------------------------------------------
Pair    | 1.7984     | 1.9686     | 2.1625     |   6.4 |  7.57
Neigh   | 0.73482    | 0.77958    | 0.83595    |   3.2 |  3.00
Comm    | 0.61656    | 0.8676     | 1.0831     |  12.5 |  3.34
Output  | 15.195     | 15.644     | 22.294     |  43.4 | 60.13
Modify  | 0.095883   | 6.7463     | 7.1951     |  66.1 | 25.93
Other   |            | 0.009196   |            |       |  0.04

Nlocal:    62.5 ave 69 max 57 min
Histogram: 3 0 2 1 1 5 2 0 1 1
Nghost:    1861.75 ave 1878 max 1849 min
Histogram: 1 4 2 2 2 0 2 0 0 3
Neighs:    0 ave 0 max 0 min
Histogram: 16 0 0 0 0 0 0 0 0 0
FullNghs:  18768.2 ave 20933 max 16783 min
Histogram: 2 1 1 2 3 1 4 1 0 1

Total # of neighbors = 300292
Ave neighs/atom = 300.292
Neighbor list builds = 1000
Dangerous builds not checked
Setting up Verlet run ...
  Unit style    : real
  Current step  : 17000
  Time step     : 1
Per MPI rank memory allocation (min/avg/max) = 4.578 | 4.579 | 4.581 Mbytes
Step Temp E_pair E_mol TotEng Press Volume Lx Ly Lz S/CPU 
   17000    302.46502   -10524.238            0   -9623.5489   -5693.0076    786.10282    9.2291092    9.2291092    9.2291092            0 
   17100     302.6704   -10531.466            0   -9630.1648   -5729.8426    786.25975    9.2297233    9.2297233    9.2297233    35.613777 
   17200    311.96889   -10565.497            0   -9636.5071    3213.4684    786.40803    9.2303035    9.2303035    9.2303035    41.620289 
   17300    302.30228   -10542.714            0   -9642.5099    1169.5926    786.85696    9.2320595    9.2320595    9.2320595    47.323734 
   17400    289.31769   -10507.622            0   -9646.0833   -11590.992    787.15652     9.233231     9.233231     9.233231    33.473692 
   17500    303.00293   -10553.678            0   -9651.3869   -10118.085    787.15174    9.2332123    9.2332123    9.2332123    40.354424 
   17600     282.9497   -10496.725            0   -9654.1487   -4802.7491    786.75849    9.2316744    9.2316744    9.2316744    36.141203 
   17700    290.71906   -10523.775            0   -9658.0631    18638.134    786.01133    9.2287511    9.2287511    9.2287511    44.958345 
   17800    294.56064   -10537.925            0   -9660.7738    11791.638     785.5639    9.2269997    9.2269997    9.2269997    33.663224 
   17900    293.96428   -10537.913            0   -9662.5372   -14462.606     785.0545    9.2250048    9.2250048    9.2250048    36.891769 
   18000    302.84958   -10567.086            0   -9665.2515   -7996.4686    783.81485    9.2201467    9.2201467    9.2201467    36.017203 
Loop time of 26.2381 on 16 procs for 1000 steps with 1000 atoms

Performance: 3.293 ns/day, 7.288 hours/ns, 38.113 timesteps/s
94.2% CPU use with 16 MPI tasks x no OpenMP threads

MPI task timing breakdown:
Section |  min time  |  avg time  |  max time  |%varavg| %total
---------------------------------------------------------------
Pair    | 1.888      | 1.9657     | 2.0812     |   3.9 |  7.49
Neigh   | 0.75746    | 0.78495    | 0.8145     |   2.1 |  2.99
Comm    | 0.67229    | 0.82292    | 0.93339    |   8.5 |  3.14
Output  | 15.926     | 16.346     | 22.578     |  39.8 | 62.30
Modify  | 0.082249   | 6.3088     | 6.7346     |  64.0 | 24.04
Other   |            | 0.009272   |            |       |  0.04

Nlocal:    62.5 ave 70 max 57 min
Histogram: 4 0 0 4 3 0 2 1 1 1
Nghost:    1851.81 ave 1865 max 1836 min
Histogram: 2 0 1 1 2 3 2 3 1 1
Neighs:    0 ave 0 max 0 min
Histogram: 16 0 0 0 0 0 0 0 0 0
FullNghs:  18809.8 ave 20998 max 17007 min
Histogram: 3 1 0 3 3 1 0 3 1 1

Total # of neighbors = 300956
Ave neighs/atom = 300.956
Neighbor list builds = 1000
Dangerous builds not checked
Setting up Verlet run ...
  Unit style    : real
  Current step  : 18000
  Time step     : 1
Per MPI rank memory allocation (min/avg/max) = 4.578 | 4.579 | 4.581 Mbytes
Step Temp E_pair E_mol TotEng Press Volume Lx Ly Lz S/CPU 
   18000    302.84958   -10567.086            0   -9665.2515   -7996.4686    783.81485    9.2201467    9.2201467    9.2201467            0 
   18100    300.56239   -10560.717            0   -9665.6936    2439.0684    782.58551    9.2153238    9.2153238    9.2153238    41.007669 
   18200    290.43006   -10530.678            0   -9665.8272    9545.3731    781.39943    9.2106659    9.2106659    9.2106659    40.063657 
   18300    304.51285   -10572.819            0   -9666.0313   -591.06323    780.23644    9.2060941    9.2060941    9.2060941    36.353366 
   18400    303.14029   -10565.208            0   -9662.5076   -3644.3746    778.97696    9.2011379    9.2011379    9.2011379    35.339275 
   18500    289.72785   -10520.138            0   -9657.3776    4058.6732    777.88805    9.1968485    9.1968485    9.1968485    36.460551 
   18600    301.73806   -10548.778            0   -9650.2538    13051.328    777.35698    9.1947551    9.1947551    9.1947551     39.65235 
   18700    300.92019   -10534.225            0   -9638.1356    20982.381    777.25191    9.1943409    9.1943409    9.1943409    35.418319 
   18800    300.06571   -10516.744            0   -9623.1991    12852.499    777.80534    9.1965226    9.1965226    9.1965226    39.739827 
   18900    290.75322   -10473.418            0   -9607.6048   -3731.8339    778.90241    9.2008443    9.2008443    9.2008443    38.287439 
   19000    292.61176   -10465.239            0   -9593.8912    5146.4345    780.33209    9.2064703    9.2064703    9.2064703    36.326916 
Loop time of 26.4841 on 16 procs for 1000 steps with 1000 atoms

Performance: 3.262 ns/day, 7.357 hours/ns, 37.759 timesteps/s
94.3% CPU use with 16 MPI tasks x no OpenMP threads

MPI task timing breakdown:
Section |  min time  |  avg time  |  max time  |%varavg| %total
---------------------------------------------------------------
Pair    | 1.9043     | 1.9995     | 2.1042     |   4.7 |  7.55
Neigh   | 0.75619    | 0.7839     | 0.81889    |   2.3 |  2.96
Comm    | 0.7763     | 0.90797    | 1.0245     |   9.0 |  3.43
Output  | 16.265     | 16.674     | 22.741     |  38.4 | 62.96
Modify  | 0.042202   | 6.1096     | 6.5186     |  63.4 | 23.07
Other   |            | 0.009262   |            |       |  0.03

Nlocal:    62.5 ave 68 max 56 min
Histogram: 3 0 0 2 1 4 0 2 1 3
Nghost:    1848.56 ave 1868 max 1822 min
Histogram: 1 1 0 2 3 1 3 1 2 2
Neighs:    0 ave 0 max 0 min
Histogram: 16 0 0 0 0 0 0 0 0 0
FullNghs:  18892.2 ave 20694 max 16740 min
Histogram: 1 2 0 2 2 3 0 2 2 2

Total # of neighbors = 302276
Ave neighs/atom = 302.276
Neighbor list builds = 1000
Dangerous builds not checked
Setting up Verlet run ...
  Unit style    : real
  Current step  : 19000
  Time step     : 1
Per MPI rank memory allocation (min/avg/max) = 4.578 | 4.579 | 4.581 Mbytes
Step Temp E_pair E_mol TotEng Press Volume Lx Ly Lz S/CPU 
   19000    292.61176   -10465.239            0   -9593.8912    5146.4345    780.33209    9.2064703    9.2064703    9.2064703            0 
   19100    300.49258    -10478.27            0   -9583.4549   -19050.054    781.86067    9.2124778    9.2124778    9.2124778    38.105309 
   19200     302.2261   -10474.266            0   -9574.2883    2764.4892    782.91242    9.2166068    9.2166068    9.2166068    33.437218 
   19300    307.61576   -10484.015            0   -9567.9875   -2802.8717    783.99768    9.2208635    9.2208635    9.2208635     36.23202 
   19400    302.28153   -10462.739            0   -9562.5958    5137.0086    784.77417    9.2239067    9.2239067    9.2239067    31.831245 
   19500     301.8108   -10458.482            0   -9559.7415   -2689.6589    785.41654    9.2264227    9.2264227    9.2264227    35.119904 
   19600    303.41131    -10460.69            0   -9557.1834    9225.5384    785.95882    9.2285456    9.2285456    9.2285456    40.284349 
   19700    308.70512   -10476.202            0   -9556.9312    5116.2913     786.5129    9.2307138    9.2307138    9.2307138    30.266251 
   19800     295.9673   -10435.749            0   -9554.4092     10103.89    787.42092    9.2342646    9.2342646    9.2342646    38.202487 
   19900    314.73904   -10494.698            0   -9557.4592    1821.8973    788.81706     9.239719     9.239719     9.239719    38.212711 
   20000    298.52249   -10446.799            0     -9557.85    3738.6068    790.60308    9.2466872    9.2466872    9.2466872    40.489981 
Loop time of 27.8546 on 16 procs for 1000 steps with 1000 atoms

Performance: 3.102 ns/day, 7.737 hours/ns, 35.901 timesteps/s
94.2% CPU use with 16 MPI tasks x no OpenMP threads

MPI task timing breakdown:
Section |  min time  |  avg time  |  max time  |%varavg| %total
---------------------------------------------------------------
Pair    | 1.8375     | 1.931      | 2.0756     |   4.9 |  6.93
Neigh   | 0.7324     | 0.76431    | 0.81147    |   2.6 |  2.74
Comm    | 0.70238    | 0.89423    | 1.0169     |   9.5 |  3.21
Output  | 17.65      | 18.063     | 24.199     |  37.3 | 64.85
Modify  | 0.056152   | 6.1926     | 6.6059     |  63.7 | 22.23
Other   |            | 0.009115   |            |       |  0.03

Nlocal:    62.5 ave 69 max 55 min
Histogram: 1 0 0 2 2 7 0 3 0 1
Nghost:    1850 ave 1874 max 1823 min
Histogram: 2 2 1 1 1 3 0 1 1 4
Neighs:    0 ave 0 max 0 min
Histogram: 16 0 0 0 0 0 0 0 0 0
FullNghs:  18674.2 ave 20741 max 16207 min
Histogram: 1 0 0 2 4 4 1 2 1 1

Total # of neighbors = 298788
Ave neighs/atom = 298.788
Neighbor list builds = 1000
Dangerous builds not checked
Setting up Verlet run ...
  Unit style    : real
  Current step  : 20000
  Time step     : 1
Per MPI rank memory allocation (min/avg/max) = 4.578 | 4.579 | 4.581 Mbytes
Step Temp E_pair E_mol TotEng Press Volume Lx Ly Lz S/CPU 
   20000    298.52249   -10446.799            0     -9557.85    3738.6068    790.60308    9.2466872    9.2466872    9.2466872            0 
   20100    295.33735   -10439.941            0   -9560.4771   -6706.7179     792.3998    9.2536866    9.2536866    9.2536866    26.782736 
   20200     293.1191   -10435.771            0    -9562.912   -1705.5804    793.32857    9.2573006    9.2573006    9.2573006     44.16856 
   20300    301.66353   -10466.349            0   -9568.0466   -15910.484    793.49972    9.2579662    9.2579662    9.2579662    37.050678 
   20400    304.15212   -10479.499            0   -9573.7863    2071.7248    793.13889    9.2565627    9.2565627    9.2565627    41.629972 
   20500    300.67187   -10476.786            0    -9581.436   -5294.2467    792.68493    9.2547963    9.2547963    9.2547963    26.579932 
   20600    307.62372   -10508.077            0   -9592.0264   -4511.1129    791.75179    9.2511634    9.2511634    9.2511634    39.184492 
   20700       298.26   -10492.264            0   -9604.0969   -39929.608    790.44904    9.2460867    9.2460867    9.2460867     38.29697 
   20800    293.69953    -10490.53            0   -9615.9431   -2110.4859    787.75824    9.2355831    9.2355831    9.2355831    42.124831 
   20900    295.74476   -10507.905            0   -9627.2281    5341.3648     784.5533    9.2230412    9.2230412    9.2230412    40.175992 
   21000    298.13787     -10524.4            0   -9636.5965    1560.9279    781.24511    9.2100595    9.2100595    9.2100595    33.009578 
Loop time of 27.9168 on 16 procs for 1000 steps with 1000 atoms

Performance: 3.095 ns/day, 7.755 hours/ns, 35.821 timesteps/s
94.2% CPU use with 16 MPI tasks x no OpenMP threads

MPI task timing breakdown:
Section |  min time  |  avg time  |  max time  |%varavg| %total
---------------------------------------------------------------
Pair    | 1.8105     | 1.9205     | 2.0443     |   4.8 |  6.88
Neigh   | 0.73899    | 0.76902    | 0.82018    |   2.5 |  2.75
Comm    | 0.6823     | 0.85679    | 0.99178    |   9.5 |  3.07
Output  | 17.067     | 17.523     | 24.311     |  41.9 | 62.77
Modify  | 0.04922    | 6.8379     | 7.2949     |  67.0 | 24.49
Other   |            | 0.009359   |            |       |  0.03

Nlocal:    62.5 ave 67 max 57 min
Histogram: 1 0 1 4 1 2 0 1 3 3
Nghost:    1862.06 ave 1874 max 1852 min
Histogram: 1 2 3 2 1 0 4 1 1 1
Neighs:    0 ave 0 max 0 min
Histogram: 16 0 0 0 0 0 0 0 0 0
FullNghs:  18884.1 ave 20432 max 16968 min
Histogram: 1 0 1 5 1 1 0 4 0 3

Total # of neighbors = 302146
Ave neighs/atom = 302.146
Neighbor list builds = 1000
Dangerous builds not checked
Setting up Verlet run ...
  Unit style    : real
  Current step  : 21000
  Time step     : 1
Per MPI rank memory allocation (min/avg/max) = 4.578 | 4.579 | 4.581 Mbytes
Step Temp E_pair E_mol TotEng Press Volume Lx Ly Lz S/CPU 
   21000    298.13787     -10524.4            0   -9636.5965    1560.9279    781.24511    9.2100595    9.2100595    9.2100595            0 
   21100    293.38773   -10518.637            0   -9644.9789   -7361.2671    778.15459    9.1978988    9.1978988    9.1978988    40.145951 
   21200    296.85293   -10534.441            0   -9650.4638    2048.8725    775.35469    9.1868538    9.1868538    9.1868538    33.707524 
   21300    302.03266   -10554.781            0    -9655.379    17718.866    773.07763    9.1778517    9.1778517    9.1778517    33.563131 
   21400     304.2463    -10564.58            0   -9658.5866     24079.19     771.8758    9.1730933    9.1730933    9.1730933    31.590193 
   21500    290.21752    -10525.12            0    -9660.902    21675.432    771.88863    9.1731441    9.1731441    9.1731441    34.507476 
   21600    299.32258   -10553.322            0   -9661.9904    13031.945    773.00269    9.1775551    9.1775551    9.1775551    41.909683 
   21700    290.48524   -10527.435            0   -9662.4197    14259.548    774.99741    9.1854425    9.1854425    9.1854425     35.86856 
   21800    300.84968   -10558.298            0   -9662.4195    1967.7504    777.67788    9.1960202    9.1960202    9.1960202     35.97146 
   21900    287.44776   -10515.727            0   -9659.7567    9465.8709    780.40682    9.2067642    9.2067642    9.2067642    35.859095 
   22000    284.19727   -10503.386            0   -9657.0955    7636.4504    783.09553    9.2173253    9.2173253    9.2173253    28.997051 
Loop time of 28.6919 on 16 procs for 1000 steps with 1000 atoms

Performance: 3.011 ns/day, 7.970 hours/ns, 34.853 timesteps/s
94.2% CPU use with 16 MPI tasks x no OpenMP threads

MPI task timing breakdown:
Section |  min time  |  avg time  |  max time  |%varavg| %total
---------------------------------------------------------------
Pair    | 1.919      | 2.0039     | 2.1568     |   4.2 |  6.98
Neigh   | 0.75666    | 0.78124    | 0.82314    |   2.0 |  2.72
Comm    | 0.69012    | 0.88419    | 0.99272    |   8.1 |  3.08
Output  | 18.085     | 18.519     | 24.964     |  38.7 | 64.54
Modify  | 0.048564   | 6.4946     | 6.9286     |  65.3 | 22.64
Other   |            | 0.009291   |            |       |  0.03

Nlocal:    62.5 ave 67 max 60 min
Histogram: 4 1 5 0 2 1 0 1 0 2
Nghost:    1868.19 ave 1885 max 1852 min
Histogram: 2 1 0 3 4 0 2 2 1 1
Neighs:    0 ave 0 max 0 min
Histogram: 16 0 0 0 0 0 0 0 0 0
FullNghs:  18847.8 ave 20340 max 17833 min
Histogram: 3 1 1 4 2 2 0 1 0 2

Total # of neighbors = 301564
Ave neighs/atom = 301.564
Neighbor list builds = 1000
Dangerous builds not checked
Setting up Verlet run ...
  Unit style    : real
  Current step  : 22000
  Time step     : 1
Per MPI rank memory allocation (min/avg/max) = 4.578 | 4.579 | 4.581 Mbytes
Step Temp E_pair E_mol TotEng Press Volume Lx Ly Lz S/CPU 
   22000    284.19727   -10503.386            0   -9657.0955    7636.4504    783.09553    9.2173253    9.2173253    9.2173253            0 
   22100    291.09556   -10519.747            0   -9652.9141   -2238.8738    785.90337    9.2283286    9.2283286    9.2283286    27.308285 
   22200    292.61111   -10517.705            0   -9646.3587   -15990.738    788.07831    9.2368337    9.2368337    9.2368337    35.510324 
   22300    290.92097   -10505.781            0   -9639.4684   -5668.5181    789.37674    9.2419038    9.2419038    9.2419038     34.84902 
   22400    280.21014   -10466.596            0   -9632.1781    -17960.22    790.02613    9.2444374    9.2444374    9.2444374    30.335646 
   22500    283.83902    -10469.53            0   -9624.3061   -18427.047    789.80242    9.2435647    9.2435647    9.2435647    30.039069 
   22600    292.88831   -10489.822            0   -9617.6503   -1399.2845    788.82637    9.2397554    9.2397554    9.2397554    33.070683 
   22700    302.29226   -10512.086            0   -9611.9113    -981.0108    787.74717    9.2355398    9.2355398    9.2355398    38.884935 
   22800    305.08113   -10516.026            0   -9607.5461     1941.492    786.83443    9.2319714    9.2319714    9.2319714     27.30765 
   22900    302.05003    -10505.45            0   -9605.9969    5423.9368    786.15064    9.2292963    9.2292963    9.2292963    34.278614 
   23000    301.46044   -10502.106            0   -9604.4086    4561.9131    785.99267    9.2286781    9.2286781    9.2286781    33.735701 
Loop time of 31.112 on 16 procs for 1000 steps with 1000 atoms

Performance: 2.777 ns/day, 8.642 hours/ns, 32.142 timesteps/s
94.2% CPU use with 16 MPI tasks x no OpenMP threads

MPI task timing breakdown:
Section |  min time  |  avg time  |  max time  |%varavg| %total
---------------------------------------------------------------
Pair    | 1.7945     | 1.9242     | 2.0451     |   4.3 |  6.18
Neigh   | 0.72975    | 0.76643    | 0.80316    |   1.6 |  2.46
Comm    | 0.7114     | 0.86809    | 1.0351     |   7.7 |  2.79
Output  | 19.083     | 19.613     | 27.495     |  46.0 | 63.04
Modify  | 0.047565   | 7.9312     | 8.4612     |  72.3 | 25.49
Other   |            | 0.009505   |            |       |  0.03

Nlocal:    62.5 ave 68 max 56 min
Histogram: 2 1 1 1 0 2 4 2 2 1
Nghost:    1857.06 ave 1877 max 1840 min
Histogram: 2 1 2 3 0 3 2 1 1 1
Neighs:    0 ave 0 max 0 min
Histogram: 16 0 0 0 0 0 0 0 0 0
FullNghs:  18782.5 ave 20578 max 16672 min
Histogram: 2 1 1 1 1 0 4 4 1 1

Total # of neighbors = 300520
Ave neighs/atom = 300.52
Neighbor list builds = 1000
Dangerous builds not checked
Setting up Verlet run ...
  Unit style    : real
  Current step  : 23000
  Time step     : 1
Per MPI rank memory allocation (min/avg/max) = 4.578 | 4.579 | 4.581 Mbytes
Step Temp E_pair E_mol TotEng Press Volume Lx Ly Lz S/CPU 
   23000    301.46044   -10502.106            0   -9604.4086    4561.9131    785.99267    9.2286781    9.2286781    9.2286781            0 
   23100    306.66379   -10516.634            0   -9603.4413   -4437.4617    786.29096    9.2298454    9.2298454    9.2298454    40.677672 
   23200    304.20559   -10507.635            0   -9601.7627    1315.1538    786.78949    9.2317957    9.2317957    9.2317957    36.964313 
   23300    305.06972   -10509.935            0   -9601.4891   -13431.994    787.61756    9.2350333    9.2350333    9.2350333    34.987401 
   23400    298.79349   -10489.016            0   -9599.2597   -3433.6279    788.18288    9.2372422    9.2372422    9.2372422    43.638753 
   23500    304.79617   -10506.878            0   -9599.2471   -4782.0075    788.57098    9.2387581    9.2387581    9.2387581    34.541867 
   23600    294.33642   -10476.167            0   -9599.6836    -21019.87    788.63627    9.2390131    9.2390131    9.2390131     30.40563 
   23700    304.06872   -10504.537            0   -9599.0724   -12767.567    787.90172    9.2361437    9.2361437    9.2361437    41.159877 
   23800    302.68857   -10499.443            0   -9598.0877   -25315.262    786.63894    9.2312068    9.2312068    9.2312068    41.542831 
   23900    301.71468   -10497.081            0   -9598.6264   -7948.9136    784.72613    9.2237185    9.2237185    9.2237185    49.303623 
   24000    296.47676    -10480.43            0   -9597.5723   -2920.0189    782.46378     9.214846     9.214846     9.214846    32.289397 
Loop time of 26.4592 on 16 procs for 1000 steps with 1000 atoms

Performance: 3.265 ns/day, 7.350 hours/ns, 37.794 timesteps/s
94.3% CPU use with 16 MPI tasks x no OpenMP threads

MPI task timing breakdown:
Section |  min time  |  avg time  |  max time  |%varavg| %total
---------------------------------------------------------------
Pair    | 1.8435     | 1.941      | 2.0026     |   3.3 |  7.34
Neigh   | 0.74114    | 0.76992    | 0.79855    |   1.6 |  2.91
Comm    | 0.78336    | 0.8641     | 0.99035    |   6.2 |  3.27
Output  | 15.787     | 16.232     | 22.828     |  42.3 | 61.35
Modify  | 0.046715   | 6.6434     | 7.0887     |  66.1 | 25.11
Other   |            | 0.009116   |            |       |  0.03

Nlocal:    62.5 ave 67 max 59 min
Histogram: 1 2 3 2 0 4 1 1 1 1
Nghost:    1858.31 ave 1888 max 1830 min
Histogram: 2 2 0 3 1 2 1 2 1 2
Neighs:    0 ave 0 max 0 min
Histogram: 16 0 0 0 0 0 0 0 0 0
FullNghs:  18871.1 ave 20438 max 17799 min
Histogram: 3 1 2 2 4 0 2 0 1 1

Total # of neighbors = 301938
Ave neighs/atom = 301.938
Neighbor list builds = 1000
Dangerous builds not checked
Setting up Verlet run ...
  Unit style    : real
  Current step  : 24000
  Time step     : 1
Per MPI rank memory allocation (min/avg/max) = 4.578 | 4.579 | 4.581 Mbytes
Step Temp E_pair E_mol TotEng Press Volume Lx Ly Lz S/CPU 
   24000    296.47676    -10480.43            0   -9597.5723   -2920.0189    782.46378     9.214846     9.214846     9.214846            0 
   24100    309.72758   -10521.235            0   -9598.9192   -13261.158    780.12281    9.2056472    9.2056472    9.2056472    45.718576 
   24200    296.43406   -10482.523            0   -9599.7928   -3666.1985     777.4841    9.1952563    9.1952563    9.1952563    36.427491 
   24300    298.56487   -10490.825            0   -9601.7495    26116.342    775.04511     9.185631     9.185631     9.185631    38.840524 
   24400    291.83116   -10472.799            0   -9603.7759    23805.297    773.74232    9.1804813    9.1804813    9.1804813    39.881017 
   24500    294.53737   -10483.798            0   -9606.7164    24002.601    773.52728    9.1796308    9.1796308    9.1796308     30.31456 
   24600    294.69311   -10490.007            0   -9612.4614    1167.2537    774.08072    9.1818195    9.1818195    9.1818195    37.230258 
   24700     290.3164    -10481.11            0    -9616.597   -2481.5314    775.22997    9.1863612    9.1863612    9.1863612     36.54282 
   24800    287.12223   -10475.415            0   -9620.4141    5474.0225    776.86967    9.1928334    9.1928334    9.1928334    32.131493 
   24900    305.39111    -10535.51            0   -9626.1077     5475.063    778.65732    9.1998792    9.1998792    9.1998792    40.814315 
   25000    296.74185   -10513.745            0   -9630.0988   -14775.148    780.41222    9.2067854    9.2067854    9.2067854    44.345498 
Loop time of 26.5532 on 16 procs for 1000 steps with 1000 atoms

Performance: 3.254 ns/day, 7.376 hours/ns, 37.660 timesteps/s
94.3% CPU use with 16 MPI tasks x no OpenMP threads

MPI task timing breakdown:
Section |  min time  |  avg time  |  max time  |%varavg| %total
---------------------------------------------------------------
Pair    | 1.8854     | 2.0145     | 2.1642     |   4.9 |  7.59
Neigh   | 0.75904    | 0.7826     | 0.81704    |   1.9 |  2.95
Comm    | 0.69266    | 0.87606    | 1.0286     |   9.0 |  3.30
Output  | 16.228     | 16.643     | 22.798     |  39.0 | 62.68
Modify  | 0.071828   | 6.2282     | 6.6424     |  63.7 | 23.46
Other   |            | 0.009264   |            |       |  0.03

Nlocal:    62.5 ave 70 max 57 min
Histogram: 2 0 2 4 2 2 3 0 0 1
Nghost:    1875.75 ave 1899 max 1857 min
Histogram: 3 0 3 1 1 3 0 4 0 1
Neighs:    0 ave 0 max 0 min
Histogram: 16 0 0 0 0 0 0 0 0 0
FullNghs:  18874.1 ave 21184 max 17043 min
Histogram: 1 1 2 2 4 3 2 0 0 1

Total # of neighbors = 301986
Ave neighs/atom = 301.986
Neighbor list builds = 1000
Dangerous builds not checked
Setting up Verlet run ...
  Unit style    : real
  Current step  : 25000
  Time step     : 1
Per MPI rank memory allocation (min/avg/max) = 4.578 | 4.579 | 4.581 Mbytes
Step Temp E_pair E_mol TotEng Press Volume Lx Ly Lz S/CPU 
   25000    296.74185   -10513.745            0   -9630.0988   -14775.148    780.41222    9.2067854    9.2067854    9.2067854            0 
   25100    296.12338     -10517.3            0   -9635.4953    -11729.08     781.5835    9.2113891    9.2113891    9.2113891    27.033838 
   25200    293.47599   -10513.369            0   -9639.4474   -6816.1759    782.45949    9.2148292    9.2148292    9.2148292    29.137349 
   25300     305.4123   -10553.476            0   -9644.0101   -3756.1521     782.8969    9.2165459    9.2165459    9.2165459    41.536621 
   25400    302.16771   -10546.154            0   -9646.3501    -15390.51    782.83292    9.2162948    9.2162948    9.2162948    34.627395 
   25500    304.19848   -10553.541            0     -9647.69   -6683.9286    782.34301    9.2143719    9.2143719    9.2143719    41.552553 
   25600    286.86074   -10502.885            0   -9648.6627    8729.3533    782.07748    9.2133293    9.2133293    9.2133293    40.003424 
   25700    287.49499   -10503.695            0   -9647.5836   -17494.353    782.10986    9.2134564    9.2134564    9.2134564    38.195825 
   25800    291.97046   -10514.704            0   -9645.2658    1120.9223    781.68644    9.2117935    9.2117935    9.2117935    40.172872 
   25900    288.08848   -10496.747            0   -9638.8688   -1757.9605    780.81678    9.2083761    9.2083761    9.2083761    37.037681 
   26000    296.94193   -10515.313            0   -9631.0708    5855.2187    779.89473      9.20475      9.20475      9.20475    42.482708 
Loop time of 27.4941 on 16 procs for 1000 steps with 1000 atoms

Performance: 3.142 ns/day, 7.637 hours/ns, 36.371 timesteps/s
94.2% CPU use with 16 MPI tasks x no OpenMP threads

MPI task timing breakdown:
Section |  min time  |  avg time  |  max time  |%varavg| %total
---------------------------------------------------------------
Pair    | 1.8079     | 1.9966     | 2.1591     |   6.4 |  7.26
Neigh   | 0.73111    | 0.78494    | 0.83549    |   2.7 |  2.85
Comm    | 0.68214    | 0.89456    | 1.1373     |  12.0 |  3.25
Output  | 16.866     | 17.299     | 23.729     |  39.9 | 62.92
Modify  | 0.078995   | 6.51       | 6.9437     |  65.1 | 23.68
Other   |            | 0.009272   |            |       |  0.03

Nlocal:    62.5 ave 66 max 57 min
Histogram: 2 0 1 0 3 1 2 3 0 4
Nghost:    1864.94 ave 1883 max 1849 min
Histogram: 1 2 2 2 1 4 0 3 0 1
Neighs:    0 ave 0 max 0 min
Histogram: 16 0 0 0 0 0 0 0 0 0
FullNghs:  18934.8 ave 20110 max 17100 min
Histogram: 2 0 1 0 3 0 3 3 1 3

Total # of neighbors = 302956
Ave neighs/atom = 302.956
Neighbor list builds = 1000
Dangerous builds not checked
Setting up Verlet run ...
  Unit style    : real
  Current step  : 26000
  Time step     : 1
Per MPI rank memory allocation (min/avg/max) = 4.578 | 4.579 | 4.581 Mbytes
Step Temp E_pair E_mol TotEng Press Volume Lx Ly Lz S/CPU 
   26000    296.94193   -10515.313            0   -9631.0708    5855.2187    779.89473      9.20475      9.20475      9.20475            0 
   26100    284.88084   -10467.184            0   -9618.8578    9626.9931    779.45436    9.2030171    9.2030171    9.2030171    32.879619 
   26200    295.19495   -10484.153            0   -9605.1128    16314.934    779.65932    9.2038237    9.2038237    9.2038237    43.772478 
   26300    301.99349   -10490.885            0   -9591.6003    8508.4029    780.60568    9.2075461    9.2075461    9.2075461    34.630184 
   26400    299.99165   -10474.654            0   -9581.3301    8050.1313    782.17765    9.2137226    9.2137226    9.2137226     42.16401 
   26500    298.49438   -10462.975            0   -9574.1098   -16221.296    783.98654    9.2208198    9.2208198    9.2208198    29.605526 
   26600    300.28811   -10461.742            0   -9567.5356   -17095.301    785.13643    9.2253257    9.2253257    9.2253257     42.46351 
   26700    306.75443   -10477.826            0   -9564.3636   -15997.213    785.39908    9.2263544    9.2263544    9.2263544     30.87501 
   26800    306.00439   -10472.571            0   -9561.3425   -7378.9511    785.03021    9.2249097    9.2249097    9.2249097    37.877857 
   26900    306.75887   -10474.075            0   -9560.5998   -2481.5361    783.83676    9.2202326    9.2202326    9.2202326    36.278886 
   27000    315.67532   -10501.263            0   -9561.2354   -2249.5211    781.98826    9.2129789    9.2129789    9.2129789     41.63812 
Loop time of 27.355 on 16 procs for 1000 steps with 1000 atoms

Performance: 3.158 ns/day, 7.599 hours/ns, 36.556 timesteps/s
94.3% CPU use with 16 MPI tasks x no OpenMP threads

MPI task timing breakdown:
Section |  min time  |  avg time  |  max time  |%varavg| %total
---------------------------------------------------------------
Pair    | 1.8493     | 1.9865     | 2.1042     |   4.5 |  7.26
Neigh   | 0.73871    | 0.77687    | 0.80789    |   2.0 |  2.84
Comm    | 0.74931    | 0.89865    | 1.0738     |   8.5 |  3.29
Output  | 16.502     | 16.951     | 23.615     |  41.8 | 61.97
Modify  | 0.067798   | 6.733      | 7.1814     |  66.3 | 24.61
Other   |            | 0.009207   |            |       |  0.03

Nlocal:    62.5 ave 66 max 57 min
Histogram: 1 0 1 1 2 2 2 4 2 1
Nghost:    1877.94 ave 1893 max 1860 min
Histogram: 1 1 0 3 2 3 2 1 1 2
Neighs:    0 ave 0 max 0 min
Histogram: 16 0 0 0 0 0 0 0 0 0
FullNghs:  18864.2 ave 19933 max 17237 min
Histogram: 1 0 1 2 0 4 0 5 0 3

Total # of neighbors = 301828
Ave neighs/atom = 301.828
Neighbor list builds = 1000
Dangerous builds not checked
Setting up Verlet run ...
  Unit style    : real
  Current step  : 27000
  Time step     : 1
Per MPI rank memory allocation (min/avg/max) = 4.578 | 4.579 | 4.581 Mbytes
Step Temp E_pair E_mol TotEng Press Volume Lx Ly Lz S/CPU 
   27000    315.67532   -10501.263            0   -9561.2354   -2249.5211    781.98826    9.2129789    9.2129789    9.2129789            0 
   27100    304.37576   -10466.661            0    -9560.282   -5973.3418    780.06155    9.2054062    9.2054062    9.2054062    39.876252 
   27200    304.75162   -10468.825            0    -9561.327    10976.366    778.49644    9.1992455    9.1992455    9.1992455    36.617087 
   27300    302.73685   -10465.278            0   -9563.7797     6454.025    777.74225    9.1962739    9.1962739    9.1962739    39.434405 
   27400    308.40124   -10485.774            0   -9567.4073   -4063.4969    777.54557    9.1954986    9.1954986    9.1954986    38.437872 
   27500    304.28947     -10478.1            0   -9571.9777    13074.789    777.93549    9.1970355    9.1970355    9.1970355    38.364664 
   27600     297.3918   -10464.578            0   -9578.9955    2310.6983    779.21904    9.2020909    9.2020909    9.2020909    37.268123 
   27700    300.66184    -10483.95            0   -9588.6308    4785.8761    780.98525    9.2090383    9.2090383    9.2090383    46.277364 
   27800     299.1097   -10489.063            0    -9598.365    -15305.79    782.96282    9.2168046    9.2168046    9.2168046    36.807182 
   27900    293.94913   -10484.758            0   -9609.4277   -17145.733    784.20056    9.2216588    9.2216588    9.2216588    31.535677 
   28000    297.09299   -10503.457            0   -9618.7648   -267.07724    784.68579    9.2235604    9.2235604    9.2235604    43.898466 
Loop time of 25.9928 on 16 procs for 1000 steps with 1000 atoms

[...]
 1300700     299.6322   -11431.519            0   -10539.265    21365.654    747.87713    9.0770226    9.0770226    9.0770226    49.348103 
 1300800    296.12373   -11419.488            0   -10537.682   -8905.5511    751.16089    9.0902883    9.0902883    9.0902883    51.955506 
 1300900    304.80517   -11445.672            0   -10538.014   -18141.444    754.27668    9.1028397    9.1028397    9.1028397    50.350544 
 1301000    300.04395    -11432.27            0   -10538.791   -22441.854    756.29815    9.1109643    9.1109643    9.1109643    49.079279 
 1301100     307.1682   -11453.852            0   -10539.158   -25765.553    756.70755     9.112608     9.112608     9.112608    52.389348 
 1301200     305.0657   -11449.817            0   -10541.383   -21783.321    755.49483    9.1077374    9.1077374    9.1077374    43.304606 
 1301300    296.91786   -11427.318            0   -10543.148   -11137.939    752.96519    9.0975608    9.0975608    9.0975608    44.390971 
 1301400    299.68335   -11438.276            0    -10545.87    2826.9525    749.76355    9.0846481    9.0846481    9.0846481    46.186567 
 1301500    307.99213   -11467.815            0   -10550.667    18623.239    746.73646    9.0724055    9.0724055    9.0724055    47.826611 
 1301600    313.83341   -11489.363            0   -10554.821    28231.921     744.6691    9.0640253    9.0640253    9.0640253    52.530894 
 1301700    309.63217   -11484.162            0   -10562.131    33186.648    743.99502    9.0612896    9.0612896    9.0612896    45.572972 
 1301800    303.60401   -11473.456            0   -10569.375    22071.576    744.95907    9.0652017    9.0652017    9.0652017    41.111667 
 1301900    297.19788   -11465.143            0   -10580.138    10588.451     747.2656    9.0745479    9.0745479    9.0745479     53.59121 
 1302000    308.46299   -11509.142            0   -10590.592   -4130.8237    750.32827    9.0869283    9.0869283    9.0869283    54.384673 
 1302100    293.38426    -11471.63            0   -10597.982   -12761.536    753.08382    9.0980386    9.0980386    9.0980386     43.47453 
 1302200    299.78548   -11496.664            0   -10603.954     -18868.7    754.69071    9.1045049    9.1045049    9.1045049    46.021104 
 1302300    300.61656   -11505.042            0   -10609.858   -23006.324    754.69148     9.104508     9.104508     9.104508    46.634357 
 1302400    295.06702   -11491.121            0   -10612.462   -20677.937    753.30012    9.0989095    9.0989095    9.0989095    40.071571 
 1302500    297.66927   -11501.449            0   -10615.041   -9675.6473    750.74589    9.0886139    9.0886139    9.0886139    53.224397 
 1302600    301.11199   -11511.229            0   -10614.569     11321.24    747.70591    9.0763299    9.0763299    9.0763299    49.906883 
 1302700     292.4148   -11482.538            0   -10611.777    21106.164    745.19443    9.0661563    9.0661563    9.0661563    41.544109 
 1302800    280.71937   -11443.667            0   -10607.733    28293.197    744.06846    9.0615877    9.0615877    9.0615877    48.605994 
 1302900    285.56839    -11452.83            0   -10602.457    23656.129    744.50573    9.0633625    9.0633625    9.0633625    37.149422 
 1303000    299.59195    -11487.59            0   -10595.456    16364.855    746.23174     9.070361     9.070361     9.070361    45.779278 
 1303100    297.46771   -11467.749            0   -10581.941    5094.6856    748.76346     9.080607     9.080607     9.080607    51.928674 
 1303200    294.32591   -11440.014            0   -10563.562   -3920.0532    751.43834    9.0914073    9.0914073    9.0914073    56.085482 
 1303300    304.69559   -11451.892            0   -10544.561   -12699.117    753.71709     9.100588     9.100588     9.100588    44.757152 
 1303400    297.10102   -11414.228            0   -10529.512   -17075.878    755.03773    9.1059002    9.1059002    9.1059002    49.874873 
 1303500     306.4393   -11432.884            0    -10520.36   -19400.353    755.08006    9.1060704    9.1060704    9.1060704     53.46474 
 1303600     299.1015   -11406.168            0   -10515.495   -7031.4486     753.9155    9.1013865    9.1013865    9.1013865    41.139158 
 1303700    305.20458   -11423.047            0     -10514.2   -4650.2606    751.97719      9.09358      9.09358      9.09358    50.799658 
 1303800    314.11157   -11447.897            0   -10512.527    1369.6202    749.82566    9.0848989    9.0848989    9.0848989    45.426006 
 1303900    309.31194   -11435.176            0   -10514.098    7204.2438    748.13196    9.0780535    9.0780535    9.0780535    43.386126 
 1304000    300.61207   -11411.323            0   -10516.152    14440.873    747.27411    9.0745823    9.0745823    9.0745823    54.661261 
 1304100    305.91165   -11433.809            0   -10522.857    22429.672    747.44857    9.0752885    9.0752885    9.0752885    30.037211 
 1304200    302.51196   -11427.595            0   -10526.766    12526.348    748.52293    9.0796346    9.0796346    9.0796346    49.808987 
 1304300    302.34645   -11435.367            0    -10535.03    -2789.347    750.09262     9.085977     9.085977     9.085977    46.888298 
 1304400    309.85978   -11467.148            0   -10544.438   -6964.9511    751.66809    9.0923338    9.0923338    9.0923338    24.303755 
 1304500    307.43087   -11468.666            0   -10553.189   -10021.805    752.78378    9.0968301    9.0968301    9.0968301     51.16624 
 1304600    301.94627   -11460.045            0     -10560.9   -13150.838    752.99626    9.0976859    9.0976859    9.0976859      45.3677 
 1304700    296.12699   -11450.379            0   -10568.563    -2094.466    752.36901    9.0951591    9.0951591    9.0951591    45.122581 
 1304800    301.15293   -11472.515            0   -10575.733   -6772.3636      751.245    9.0906276    9.0906276    9.0906276    53.366184 
 1304900    298.97407    -11472.83            0   -10582.536    2476.1963     749.7279    9.0845041    9.0845041    9.0845041    34.132035 
 1305000    298.67879   -11476.684            0   -10587.269    9657.5358    748.34287    9.0789065    9.0789065    9.0789065    43.708913 
 1305100    302.47472   -11491.595            0   -10590.877    18687.784    747.39414    9.0750682    9.0750682    9.0750682    37.317895 
 1305200    306.84719   -11508.135            0   -10594.396    10725.481    747.20857     9.074317     9.074317     9.074317    48.692975 
 1305300    297.65953   -11483.031            0   -10596.652    4632.1859    747.72101     9.076391     9.076391     9.076391    42.943768 
 1305400    288.19344   -11456.055            0   -10597.865    902.45424    748.73697    9.0804999    9.0804999    9.0804999    44.779465 
 1305500    296.23554   -11480.358            0   -10598.219   -2809.0193    749.83522    9.0849375    9.0849375    9.0849375    47.457261 
 1305600    291.93195   -11466.822            0   -10597.498   -8178.3956    750.74345    9.0886041    9.0886041    9.0886041    48.285096 
 1305700    297.89477   -11483.205            0   -10596.125   -5703.1592    751.24321    9.0906203    9.0906203    9.0906203    35.743196 
 1305800    298.97714    -11484.26            0   -10593.957    -16026.66    751.20764    9.0904769    9.0904769    9.0904769    44.391737 
 1305900    300.75384   -11485.616            0   -10590.022   -8938.9393    750.58082    9.0879477    9.0879477    9.0879477    49.943239 
 1306000    303.22084   -11487.873            0   -10584.933   -3044.8123    749.71897     9.084468     9.084468     9.084468    41.219073 
 1306100    300.39404   -11472.223            0   -10577.701    181.60511     748.8745    9.0810559    9.0810559    9.0810559    47.030646 
 1306200    301.12704   -11461.752            0   -10565.047    4238.5767    748.29544    9.0787147    9.0787147    9.0787147    48.811815 
 1306300    308.43398   -11464.858            0   -10546.395    10802.811    748.20014    9.0783292    9.0783292    9.0783292    47.667455 
 1306400    301.46622   -11423.291            0   -10525.576    12159.178      748.842    9.0809245    9.0809245    9.0809245    42.545448 
 1306500    315.41128   -11448.568            0   -10509.327    3404.5276    750.07184    9.0858931    9.0858931    9.0858931    41.377453 
 1306600    301.72384   -11396.206            0   -10497.724    1992.7367    751.52808    9.0917692    9.0917692    9.0917692    35.710547 
 1306700    302.71562   -11395.291            0   -10493.855   -9143.3252     752.7755    9.0967968    9.0967968    9.0967968    46.925527 
 1306800    304.92016   -11400.629            0   -10492.628   -14431.498    753.43375    9.0994475    9.0994475    9.0994475    43.928024 
 1306900    308.73465   -11413.469            0    -10494.11   -4649.8001    753.36978      9.09919      9.09919      9.09919    48.563248 
 1307000    311.57013   -11425.446            0   -10497.643   -9343.7681     752.8414    9.0970622    9.0970622    9.0970622    46.598238 
 1307100     301.0137   -11399.085            0   -10502.717   -3056.0861    751.91956    9.0933476    9.0933476    9.0933476    34.426274 
 1307200     303.5168   -11415.241            0    -10511.42    -3290.451    750.79877    9.0888273    9.0888273    9.0888273    41.963514 
 1307300    307.96167   -11437.808            0   -10520.751    10041.171    749.62002    9.0840683    9.0840683    9.0840683     41.84429 
 1307400    304.41391   -11436.492            0   -10529.999      18821.3    748.79971    9.0807535    9.0807535    9.0807535    57.602367 
 1307500    287.67065   -11394.902            0   -10538.268    5084.6397    748.54169    9.0797104    9.0797104    9.0797104    41.095419 
 1307600    304.08183   -11454.427            0   -10548.924    5319.8545    748.87703    9.0810661    9.0810661    9.0810661    41.000468 
 1307700      288.715   -11416.935            0   -10557.191    8105.0264    749.62105    9.0840725    9.0840725    9.0840725    40.302521 
 1307800    299.47601    -11456.29            0   -10564.501   -5081.8198    750.51071    9.0876648    9.0876648    9.0876648    50.912756 
 1307900    299.04491   -11461.433            0   -10570.929   -5496.3809    751.24367    9.0906222    9.0906222    9.0906222    35.318744 
 1308000    298.51196   -11465.015            0   -10576.097   -6540.8817    751.67187    9.0923491    9.0923491    9.0923491    50.297274 
 1308100    294.54437   -11456.727            0   -10579.624   -837.29362    751.80018    9.0928664    9.0928664    9.0928664    49.888271 
 1308200    297.67547   -11470.806            0   -10584.379   -4655.0645    751.48728    9.0916047    9.0916047    9.0916047    33.596794 
 1308300    290.04844   -11449.257            0   -10585.542   -7051.3929    750.71899    9.0885053    9.0885053    9.0885053    46.588027 
 1308400    301.69062   -11486.448            0   -10588.065   -374.73504    749.67963    9.0843091    9.0843091    9.0843091    39.125583 
 1308500    296.31755   -11471.551            0   -10589.168     3483.747    748.80381    9.0807701    9.0807701    9.0807701    49.586988 
 1308600    300.74852   -11485.165            0   -10589.587    8189.6058    748.15638    9.0781522    9.0781522    9.0781522    52.892509 
 1308700    303.58808   -11492.862            0   -10588.829    2550.8304    747.99835     9.077513     9.077513     9.077513     37.46682 
 1308800    296.17145   -11469.474            0   -10587.526    5285.0583    748.25746    9.0785611    9.0785611    9.0785611    49.022631 
 1308900    300.73939   -11481.748            0   -10586.197    5114.2546    748.97334    9.0814554    9.0814554    9.0814554     45.35987 
 1309000     298.3651   -11471.158            0   -10582.678    8967.2445    749.95036    9.0854025    9.0854025    9.0854025    41.683235 
 1309100     289.1073   -11437.543            0   -10576.631   -3326.8349    751.02925    9.0897572    9.0897572    9.0897572    47.523079 
 1309200    303.46291   -11473.032            0   -10569.371   -7663.2578    751.79807    9.0928578    9.0928578    9.0928578    50.210475 
 1309300    297.03676    -11442.75            0   -10558.226    -3029.386    752.15448    9.0942945    9.0942945    9.0942945     41.02724 
 1309400    300.50472   -11438.158            0   -10543.306   -8354.5183    752.01682    9.0937397    9.0937397    9.0937397    43.560045 
 1309500    319.81903   -11480.702            0   -10528.335   -6139.8318    751.37134    9.0911371    9.0911371    9.0911371    42.095428 
 1309600    312.38112    -11445.12            0   -10514.902   -3558.2894    750.51859    9.0876966    9.0876966    9.0876966    48.035561 
 1309700     308.3649    -11422.78            0   -10504.522    10640.694    749.78165    9.0847212    9.0847212    9.0847212    50.202849 
 1309800      309.067   -11418.692            0   -10498.343    374.36222    749.54378    9.0837604    9.0837604    9.0837604    44.089119 
 1309900    313.64118   -11431.181            0   -10497.211    9593.5669    749.64929    9.0841866    9.0841866    9.0841866    47.356206 
 1310000    324.30339   -11464.226            0   -10498.506    2667.4983    750.28448    9.0867516    9.0867516    9.0867516    53.446212 
 1310100    307.85623   -11417.105            0   -10500.362   -662.67866    751.31065    9.0908924    9.0908924    9.0908924    39.106451 
 1310200    312.11994   -11435.561            0   -10506.121   -4291.1268    752.46535    9.0955473    9.0955473    9.0955473    48.552186 
 1310300    314.84162   -11451.099            0   -10513.554   -6586.6584    753.31515      9.09897      9.09897      9.09897    43.777121 
 1310400    305.91039   -11432.118            0   -10521.169   -18180.788    753.50211    9.0997227    9.0997227    9.0997227    44.970517 
 1310500    299.97496   -11422.409            0   -10529.135   -13515.871    752.76528    9.0967556    9.0967556    9.0967556     46.47321 
 1310600    306.44289   -11450.348            0   -10537.814   -320.06247    751.29125    9.0908141    9.0908141    9.0908141    37.237933 
 1310700    304.58083   -11452.988            0   -10545.999     5024.094    749.50606     9.083608     9.083608     9.083608    48.453937 
 1310800    310.33383   -11477.566            0   -10553.445    10664.573     747.9392    9.0772737    9.0772737    9.0772737    35.610423 
 1310900    307.20267   -11474.594            0   -10559.797    17323.939    747.01242    9.0735229    9.0735229    9.0735229    42.480753 
 1311000    298.64314   -11454.166            0   -10564.857    13962.699     747.0463    9.0736601    9.0736601    9.0736601    47.059479 
 1311100    310.95028   -11496.236            0   -10570.279     5936.122    747.93854    9.0772711    9.0772711    9.0772711    46.219969 
 1311200    303.32912   -11476.234            0   -10572.971   -94.508368    749.46359    9.0834364    9.0834364    9.0834364    51.007339 
 1311300    304.99158   -11484.288            0   -10576.076   -7798.3752    751.32018    9.0909308    9.0909308    9.0909308    50.902752 
 1311400    291.94793    -11446.14            0   -10576.769    -16006.96    753.03253     9.097832     9.097832     9.097832    39.939961 
 1311500    301.89461   -11478.435            0   -10579.444   -17939.343     753.9019    9.1013318    9.1013318    9.1013318    48.921724 
 1311600    295.28727   -11459.074            0   -10579.759   -16387.819    753.67094    9.1004023    9.1004023    9.1004023     47.08962 
 1311700     300.4307   -11475.165            0   -10580.534   -18823.773    752.31461    9.0949398    9.0949398    9.0949398    49.677724 
 1311800    286.92767   -11432.814            0   -10578.392    1621.1199    750.04578    9.0857878    9.0857878    9.0857878    50.849199 
 1311900    293.83223   -11452.969            0   -10577.987    8351.4404    747.55119    9.0757038    9.0757038    9.0757038    40.214313 
 1312000    298.86613   -11464.632            0    -10574.66    21246.895    745.48294    9.0673261    9.0673261    9.0673261    49.668421 
 1312100    291.87797   -11441.918            0   -10572.756    24621.446    744.45198    9.0631443    9.0631443    9.0631443    52.442605 
 1312200    303.99208   -11476.845            0   -10571.609    16100.191    744.84585    9.0647424    9.0647424    9.0647424    42.469978 
 1312300    308.35596   -11487.784            0   -10569.552    11691.486    746.67807     9.072169     9.072169     9.072169    53.764267 
 1312400    299.99998   -11459.484            0   -10566.135    845.73345    749.65722    9.0842186    9.0842186    9.0842186    53.650977 
 1312500    295.87669   -11441.717            0   -10560.647   -15628.728    753.09406    9.0980798    9.0980798    9.0980798    37.351269 
 1312600    300.58125   -11448.513            0   -10553.433   -24356.936    756.00102     9.109771     9.109771     9.109771    49.612602 
 1312700    297.22267   -11426.329            0   -10541.251   -37817.897    757.61966    9.1162679    9.1162679    9.1162679    51.649356 
 1312800    304.24547   -11433.391            0     -10527.4   -18127.606    757.40671    9.1154137    9.1154137    9.1154137    42.017514 
 1312900    313.17912   -11447.269            0   -10514.675   -22162.601    755.48651    9.1077039    9.1077039    9.1077039    38.416283 
 1313000    302.48548    -11402.03            0    -10501.28   -2768.7129    752.22947    9.0945968    9.0945968    9.0945968    45.662353 
 1313100    309.76336   -11415.809            0   -10493.387    19401.812    748.50598    9.0795661    9.0795661    9.0795661    51.423818 
 1313200    314.64828   -11423.898            0    -10486.93    26024.035    745.25245    9.0663916    9.0663916    9.0663916    48.084882 
 1313300    312.92165   -11416.784            0   -10484.957    29832.883    743.50894    9.0593158    9.0593158    9.0593158    43.461358 
 1313400    321.71967   -11446.128            0   -10488.102    38688.202    743.79996    9.0604976    9.0604976    9.0604976    41.376842 
 1313500    309.02645   -11413.431            0   -10493.203    27667.658    746.21237    9.0702825    9.0702825    9.0702825    51.602538 
 1313600    302.25796   -11401.932            0   -10501.859    14951.197    750.19845    9.0864042    9.0864042    9.0864042    22.505813 
 1313700    303.01754   -11414.496            0   -10512.161    -11113.65    754.79979    9.1049435    9.1049435    9.1049435     43.37252 
 1313800    305.00994   -11430.505            0   -10522.238   -35034.321    758.54909    9.1199942    9.1199942    9.1199942    29.396293 
 1313900    300.73272   -11426.663            0   -10531.132   -38102.543    760.24623    9.1267907    9.1267907    9.1267907     46.09501 
 1314000    292.54145   -11409.697            0   -10538.558   -35757.172    759.21876    9.1226773    9.1226773    9.1226773    48.880807 
Loop time of 2247.26 on 16 procs for 100000 steps with 1000 atoms

Performance: 3.845 ns/day, 6.242 hours/ns, 44.499 timesteps/s
94.4% CPU use with 16 MPI tasks x no OpenMP threads

MPI task timing breakdown:
Section |  min time  |  avg time  |  max time  |%varavg| %total
---------------------------------------------------------------
Pair    | 188.26     | 193.04     | 200.67     |  22.1 |  8.59
Neigh   | 77.801     | 79.999     | 82.687     |  12.0 |  3.56
Comm    | 71.189     | 81.545     | 88.546     |  45.5 |  3.63
Output  | 1274.5     | 1313       | 1883.9     | 406.8 | 58.43
Modify  | 7.844      | 578.69     | 617.29     | 612.7 | 25.75
Other   |            | 0.9459     |            |       |  0.04

Nlocal:    62.5 ave 68 max 56 min
Histogram: 3 0 0 0 2 4 3 1 1 2
Nghost:    1901.12 ave 1919 max 1880 min
Histogram: 1 1 2 1 1 4 1 2 1 2
Neighs:    0 ave 0 max 0 min
Histogram: 16 0 0 0 0 0 0 0 0 0
FullNghs:  19361 ave 21125 max 17005 min
Histogram: 2 1 0 0 3 2 3 1 2 2

Total # of neighbors = 309776
Ave neighs/atom = 309.776
Neighbor list builds = 100000
Dangerous builds not checked
Total wall time: 9:06:00
