LAMMPS (16 Mar 2018)
Reading data file ...
  orthogonal box = (-4.70375 -4.70375 -4.70375) to (4.70375 4.70375 4.70375)
  2 by 2 by 4 MPI processor grid
  reading atoms ...
  1000 atoms
Reading potential file /home/fs01/ajm529/lammps-16Mar18/potentials/sw_potentials/AG/eps2.23.sw with DATE: 2008-01-29
Neighbor list info ...
  update every 1 steps, delay 0 steps, check no
  max neighbors/atom: 2000, page size: 100000
  master list distance cutoff = 3.836
  ghost atom cutoff = 3.836
  binsize = 1.918, bins = 5 5 5
  1 neighbor lists, perpetual/occasional/extra = 1 0 0
  (1) pair sw, perpetual
      attributes: full, newton on
      pair build: full/bin/atomonly
      stencil: full/bin/3d
      bin: standard
Setting up Verlet run ...
  Unit style    : real
  Current step  : 0
  Time step     : 1
Per MPI rank memory allocation (min/avg/max) = 3.518 | 3.519 | 3.52 Mbytes
Step Temp E_pair E_mol TotEng Press Volume Lx Ly Lz S/CPU 
       0          300   -10253.859            0   -9360.5103   -34724.812    832.57197    9.4074935    9.4074935    9.4074935            0 
     100    311.06541   -10289.338            0   -9363.0379   -37743.869    830.65929     9.400284     9.400284     9.400284    45.013496 
     200    308.02062   -10287.424            0   -9370.1912   -37569.846    825.10106    9.3792702    9.3792702    9.3792702    61.975581 
     300    323.23081   -10343.336            0   -9380.8098   -23843.393    816.97408    9.3483743    9.3483743    9.3483743    53.094468 
     400    309.01506   -10315.043            0   -9394.8487   -6794.8784    807.87818    9.3135509    9.3135509    9.3135509    54.968405 
     500    329.25381   -10394.263            0   -9413.8018    6516.4294    798.88302    9.2788552    9.2788552    9.2788552      53.8066 
     600    327.65492   -10407.654            0   -9431.9539    5404.5722    791.07973    9.2485451    9.2485451    9.2485451    50.955227 
     700    315.34002   -10383.999            0   -9444.9706    14417.859     785.3973    9.2263474    9.2263474    9.2263474    71.503441 
     800    325.02388   -10423.345            0   -9455.4792     12288.98    781.38784    9.2106204    9.2106204    9.2106204      83.8433 
     900    305.44957   -10374.705            0   -9465.1286    9865.3844    778.93478    9.2009718    9.2009718    9.2009718    61.376828 
    1000    315.57457    -10417.72            0   -9477.9926        15866    778.08134    9.1976102    9.1976102    9.1976102    73.030154 
Loop time of 16.9486 on 16 procs for 1000 steps with 1000 atoms

Performance: 5.098 ns/day, 4.708 hours/ns, 59.002 timesteps/s
94.9% CPU use with 16 MPI tasks x no OpenMP threads

MPI task timing breakdown:
Section |  min time  |  avg time  |  max time  |%varavg| %total
---------------------------------------------------------------
Pair    | 2.2265     | 2.365      | 2.5073     |   4.3 | 13.95
Neigh   | 0.77813    | 0.8086     | 0.85172    |   1.8 |  4.77
Comm    | 0.79174    | 0.98197    | 1.1514     |   8.1 |  5.79
Output  | 8.8374     | 9.0841     | 12.733     |  31.3 | 53.60
Modify  | 0.056441   | 3.7007     | 3.9471     |  48.9 | 21.83
Other   |            | 0.008279   |            |       |  0.05

Nlocal:    62.5 ave 67 max 54 min
Histogram: 1 1 0 1 1 0 4 2 4 2
Nghost:    1854.12 ave 1868 max 1834 min
Histogram: 2 0 0 0 3 3 1 4 1 2
Neighs:    0 ave 0 max 0 min
Histogram: 16 0 0 0 0 0 0 0 0 0
FullNghs:  18979.2 ave 20557 max 16381 min
Histogram: 1 1 0 1 1 2 2 5 2 1

Total # of neighbors = 303668
Ave neighs/atom = 303.668
Neighbor list builds = 1000
Dangerous builds not checked
Setting up Verlet run ...
  Unit style    : real
  Current step  : 1000
  Time step     : 1
Per MPI rank memory allocation (min/avg/max) = 3.768 | 4.477 | 4.579 Mbytes
Step Temp E_pair E_mol TotEng Press Volume Lx Ly Lz S/CPU 
    1000    315.57457    -10417.72            0   -9477.9926        15866    778.08134    9.1976102    9.1976102    9.1976102            0 
    1100    302.64296   -10391.674            0    -9490.455    3728.4424    778.88003    9.2007562    9.2007562    9.2007562    60.967639 
    1200    319.71733    -10457.62            0   -9505.5566    13421.783    780.61328     9.207576     9.207576     9.207576    65.673379 
    1300    307.62424   -10435.431            0   -9519.3785    12156.046     783.0355    9.2170898    9.2170898    9.2170898    78.402312 
    1400     306.2199   -10444.255            0   -9532.3844   -7005.9959    785.93603    9.2284564    9.2284564    9.2284564    75.299928 
    1500    306.62548   -10457.468            0   -9544.3892   -15308.549    788.37814     9.238005     9.238005     9.238005    67.463789 
    1600    307.02455   -10470.239            0   -9555.9722    559.26034    790.46308    9.2461414    9.2461414    9.2461414    77.414303 
    1700    302.34076   -10466.355            0   -9566.0362   -1556.4349    792.08914    9.2524771    9.2524771    9.2524771    54.352855 
    1800    296.26709   -10457.266            0    -9575.033   -7064.8805    793.36066    9.2574254    9.2574254    9.2574254    76.477873 
    1900     304.7249   -10492.333            0   -9584.9142   -15370.777    794.06883     9.260179     9.260179     9.260179    70.355716 
    2000    308.07551   -10511.387            0   -9593.9906   -10728.416    793.74543    9.2589217    9.2589217    9.2589217    64.338996 
Loop time of 14.6635 on 16 procs for 1000 steps with 1000 atoms

Performance: 5.892 ns/day, 4.073 hours/ns, 68.197 timesteps/s
95.2% CPU use with 16 MPI tasks x no OpenMP threads

MPI task timing breakdown:
Section |  min time  |  avg time  |  max time  |%varavg| %total
---------------------------------------------------------------
Pair    | 2.3203     | 2.4202     | 2.6413     |   4.8 | 16.50
Neigh   | 0.77526    | 0.8047     | 0.87537    |   2.6 |  5.49
Comm    | 0.73721    | 1.0312     | 1.1593     |   9.5 |  7.03
Output  | 6.1792     | 6.443      | 10.349     |  39.7 | 43.94
Modify  | 0.051749   | 3.9561     | 4.2225     |  50.7 | 26.98
Other   |            | 0.008224   |            |       |  0.06

Nlocal:    62.5 ave 67 max 59 min
Histogram: 2 3 3 0 0 2 2 0 3 1
Nghost:    1840.44 ave 1857 max 1818 min
Histogram: 1 2 1 1 1 1 3 2 1 3
Neighs:    0 ave 0 max 0 min
Histogram: 16 0 0 0 0 0 0 0 0 0
FullNghs:  18582.9 ave 20003 max 17500 min
Histogram: 2 3 3 0 0 4 0 0 3 1

Total # of neighbors = 297326
Ave neighs/atom = 297.326
Neighbor list builds = 1000
Dangerous builds not checked
Setting up Verlet run ...
  Unit style    : real
  Current step  : 2000
  Time step     : 1
Per MPI rank memory allocation (min/avg/max) = 3.769 | 4.528 | 4.579 Mbytes
Step Temp E_pair E_mol TotEng Press Volume Lx Ly Lz S/CPU 
    2000    308.07551   -10511.387            0   -9593.9906   -10728.416    793.74543    9.2589217    9.2589217    9.2589217            0 
    2100    304.21709   -10508.008            0   -9602.1019    -9234.786    792.60208    9.2544739    9.2544739    9.2544739    70.616378 
    2200    304.26924    -10517.24            0   -9611.1785   -11672.942    790.76334     9.247312     9.247312     9.247312    84.387679 
    2300    297.34999   -10504.898            0     -9619.44   -12361.611    788.11572    9.2369799    9.2369799    9.2369799    55.908038 
    2400    290.15391    -10488.69            0   -9624.6608   -10134.782    784.77179    9.2238974    9.2238974    9.2238974    68.559396 
    2500    294.85213   -10507.696            0   -9629.6766    2160.4867    781.33144    9.2103988    9.2103988    9.2103988    73.363716 
    2600    305.05714   -10543.201            0   -9634.7927      4891.71    778.41259    9.1989152    9.1989152    9.1989152    58.142273 
    2700     298.6848   -10527.207            0   -9637.7746    12396.705    776.50325    9.1913879    9.1913879    9.1913879    63.947191 
    2800    296.25815    -10525.49            0   -9643.2843    9145.1607    775.78847    9.1885667    9.1885667    9.1885667    49.885861 
    2900    296.07894    -10529.81            0   -9648.1378    22686.734    776.24501    9.1903688    9.1903688    9.1903688    64.572629 
    3000    297.45891   -10539.272            0   -9653.4901    9437.2431    777.87104    9.1967815    9.1967815    9.1967815    54.879615 
Loop time of 15.8705 on 16 procs for 1000 steps with 1000 atoms

Performance: 5.444 ns/day, 4.408 hours/ns, 63.010 timesteps/s
95.1% CPU use with 16 MPI tasks x no OpenMP threads

MPI task timing breakdown:
Section |  min time  |  avg time  |  max time  |%varavg| %total
---------------------------------------------------------------
Pair    | 2.2704     | 2.437      | 2.5659     |   4.7 | 15.36
Neigh   | 0.77635    | 0.80811    | 0.8365     |   1.7 |  5.09
Comm    | 0.85798    | 1.0149     | 1.213      |   8.5 |  6.40
Output  | 7.5111     | 7.7673     | 11.552     |  35.1 | 48.94
Modify  | 0.049986   | 3.8349     | 4.0909     |  49.9 | 24.16
Other   |            | 0.008245   |            |       |  0.05

Nlocal:    62.5 ave 67 max 57 min
Histogram: 1 1 3 1 1 0 0 4 1 4
Nghost:    1858.25 ave 1885 max 1836 min
Histogram: 1 1 1 5 3 1 1 2 0 1
Neighs:    0 ave 0 max 0 min
Histogram: 16 0 0 0 0 0 0 0 0 0
FullNghs:  18985 ave 20298 max 17273 min
Histogram: 2 0 4 0 1 0 1 3 1 4

Total # of neighbors = 303760
Ave neighs/atom = 303.76
Neighbor list builds = 1000
Dangerous builds not checked
Setting up Verlet run ...
  Unit style    : real
  Current step  : 3000
  Time step     : 1
Per MPI rank memory allocation (min/avg/max) = 4.578 | 4.578 | 4.579 Mbytes
Step Temp E_pair E_mol TotEng Press Volume Lx Ly Lz S/CPU 
    3000    297.45891   -10539.272            0   -9653.4901    9437.2431    777.87104    9.1967815    9.1967815    9.1967815            0 
    3100    304.07263   -10564.739            0   -9659.2623    16203.937    779.94711     9.204956     9.204956     9.204956    51.347226 
    3200    296.39008   -10547.279            0   -9664.6803    1099.2522    782.60183    9.2153879    9.2153879    9.2153879    63.237512 
    3300    293.71631   -10542.581            0   -9667.9436   -5329.5048    785.20984    9.2256132    9.2256132    9.2256132    48.266522 
    3400     291.3278   -10538.583            0    -9671.059   -10696.435    787.14516    9.2331866    9.2331866    9.2331866    47.260705 
    3500    294.72528   -10549.949            0   -9672.3079   -16866.479    788.12805     9.237028     9.237028     9.237028    56.168194 
    3600    297.57072   -10557.411            0   -9671.2966   -2663.8423    788.13511    9.2370556    9.2370556    9.2370556      54.7157 
    3700    295.28239     -10546.8            0   -9667.4994   -19028.611    787.12014    9.2330887    9.2330887    9.2330887    51.440286 
    3800    287.41697   -10516.318            0   -9660.4395   -3833.9842    785.14947    9.2253768    9.2253768    9.2253768    59.808066 
    3900    296.45545    -10533.43            0   -9650.6365    4083.4788     783.0139     9.217005     9.217005     9.217005    51.626517 
    4000    300.94581   -10532.363            0   -9636.1976    9315.0421    781.14256    9.2096565    9.2096565    9.2096565     61.74033 
Loop time of 18.4973 on 16 procs for 1000 steps with 1000 atoms

Performance: 4.671 ns/day, 5.138 hours/ns, 54.062 timesteps/s
94.9% CPU use with 16 MPI tasks x no OpenMP threads

MPI task timing breakdown:
Section |  min time  |  avg time  |  max time  |%varavg| %total
---------------------------------------------------------------
Pair    | 2.3087     | 2.3926     | 2.5549     |   4.4 | 12.94
Neigh   | 0.7751     | 0.79657    | 0.84026    |   1.9 |  4.31
Comm    | 0.83778    | 1.0433     | 1.1488     |   8.2 |  5.64
Output  | 9.7838     | 10.062     | 14.184     |  33.6 | 54.40
Modify  | 0.071933   | 4.1945     | 4.4729     |  52.0 | 22.68
Other   |            | 0.008212   |            |       |  0.04

Nlocal:    62.5 ave 70 max 56 min
Histogram: 1 1 3 0 2 5 2 1 0 1
Nghost:    1868.44 ave 1893 max 1850 min
Histogram: 2 4 0 2 1 3 1 0 1 2
Neighs:    0 ave 0 max 0 min
Histogram: 16 0 0 0 0 0 0 0 0 0
FullNghs:  18884.4 ave 21375 max 16723 min
Histogram: 1 1 3 0 3 3 3 1 0 1

Total # of neighbors = 302150
Ave neighs/atom = 302.15
Neighbor list builds = 1000
Dangerous builds not checked
Setting up Verlet run ...
  Unit style    : real
  Current step  : 4000
  Time step     : 1
Per MPI rank memory allocation (min/avg/max) = 4.578 | 4.579 | 4.579 Mbytes
Step Temp E_pair E_mol TotEng Press Volume Lx Ly Lz S/CPU 
    4000    300.94581   -10532.363            0   -9636.1976    9315.0421    781.14256    9.2096565    9.2096565    9.2096565            0 
    4100    300.00338   -10514.479            0   -9621.1198   -113.39345    779.70219    9.2039924    9.2039924    9.2039924    61.832759 
    4200    300.86853    -10504.54            0   -9608.6048    2852.5132    778.72359    9.2001402    9.2001402    9.2001402    46.268377 
    4300    302.73059   -10499.415            0   -9597.9351   -5509.7925    778.36267    9.1987186    9.1987186    9.1987186    58.505097 
    4400    309.44807    -10513.99            0   -9592.5063   -2671.1191    778.15163    9.1978872    9.1978872    9.1978872    55.117688 
    4500    306.32721   -10502.409            0   -9590.2186    1358.5862    778.16653    9.1979459    9.1979459    9.1979459    62.040325 
    4600    316.45126   -10533.335            0   -9590.9973    12599.994    778.57203    9.1995433    9.1995433    9.1995433    49.532136 
    4700    314.54581   -10529.551            0   -9592.8876   -3443.6374    779.62932    9.2037057    9.2037057    9.2037057    65.449032 
    4800    298.86589    -10486.96            0   -9596.9887    3557.7829    781.21196    9.2099293    9.2099293    9.2099293    43.284035 
    4900    301.26025   -10496.802            0   -9599.7002     6238.779    783.26495      9.21799      9.21799      9.21799    65.229924 
    5000    302.70718   -10506.443            0   -9605.0326   -2768.0266    785.13159    9.2253068    9.2253068    9.2253068     46.75116 
Loop time of 18.4431 on 16 procs for 1000 steps with 1000 atoms

Performance: 4.685 ns/day, 5.123 hours/ns, 54.221 timesteps/s
94.9% CPU use with 16 MPI tasks x no OpenMP threads

MPI task timing breakdown:
Section |  min time  |  avg time  |  max time  |%varavg| %total
---------------------------------------------------------------
Pair    | 2.3392     | 2.4531     | 2.6923     |   5.9 | 13.30
Neigh   | 0.77859    | 0.80895    | 0.88915    |   3.0 |  4.39
Comm    | 0.73429    | 1.0535     | 1.1977     |  11.4 |  5.71
Output  | 9.5075     | 9.7939     | 14.039     |  35.0 | 53.10
Modify  | 0.07967    | 4.3253     | 4.614      |  52.7 | 23.45
Other   |            | 0.008321   |            |       |  0.05

Nlocal:    62.5 ave 66 max 57 min
Histogram: 1 1 1 2 1 0 2 4 1 3
Nghost:    1866.69 ave 1894 max 1844 min
Histogram: 1 1 3 2 1 5 0 2 0 1
Neighs:    0 ave 0 max 0 min
Histogram: 16 0 0 0 0 0 0 0 0 0
FullNghs:  18791.9 ave 20111 max 16897 min
Histogram: 1 2 0 1 2 0 3 3 0 4

Total # of neighbors = 300670
Ave neighs/atom = 300.67
Neighbor list builds = 1000
Dangerous builds not checked
Setting up Verlet run ...
  Unit style    : real
  Current step  : 5000
  Time step     : 1
Per MPI rank memory allocation (min/avg/max) = 4.578 | 4.579 | 4.579 Mbytes
Step Temp E_pair E_mol TotEng Press Volume Lx Ly Lz S/CPU 
    5000    302.70718   -10506.443            0   -9605.0326   -2768.0266    785.13159    9.2253068    9.2253068    9.2253068            0 
    5100    302.69226   -10508.961            0   -9607.5956   -6407.0007    786.48936    9.2306217    9.2306217    9.2306217     63.59729 
    5200    286.70163   -10463.487            0    -9609.738    -15375.96     787.1296    9.2331257    9.2331257    9.2331257    45.913177 
    5300    302.61732   -10512.223            0   -9611.0803    3479.3419    787.04563    9.2327974    9.2327974    9.2327974    62.073555 
    5400    294.29859   -10489.058            0    -9612.687   -9201.3667    786.62767    9.2311627    9.2311627    9.2311627    52.770965 
    5500    295.18817   -10492.459            0   -9613.4395   -2259.5903    785.42073    9.2264391    9.2264391    9.2264391     58.14809 
    5600    297.26097   -10502.001            0   -9616.8086    5583.6438    783.77574    9.2199933    9.2199933    9.2199933    53.400868 
    5700    305.29567   -10528.813            0   -9619.6945   -6621.4222    782.01939    9.2131012    9.2131012    9.2131012    50.438054 
    5800    301.50282   -10519.664            0   -9621.8406    9971.6608    780.38041    9.2066603    9.2066603    9.2066603    59.390327 
    5900    304.24249   -10531.004            0   -9625.0214    11755.682    779.13174    9.2017472    9.2017472    9.2017472    53.233314 
    6000    301.50491   -10529.326            0   -9631.4959    4043.7125    778.30409    9.1984878    9.1984878    9.1984878    58.282295 
Loop time of 18.1095 on 16 procs for 1000 steps with 1000 atoms

Performance: 4.771 ns/day, 5.030 hours/ns, 55.220 timesteps/s
94.9% CPU use with 16 MPI tasks x no OpenMP threads

MPI task timing breakdown:
Section |  min time  |  avg time  |  max time  |%varavg| %total
---------------------------------------------------------------
Pair    | 2.2823     | 2.4352     | 2.7828     |   7.2 | 13.45
Neigh   | 0.76796    | 0.80662    | 0.89368    |   3.2 |  4.45
Comm    | 0.58504    | 1.0193     | 1.2112     |  13.9 |  5.63
Output  | 9.3788     | 9.6564     | 13.769     |  34.2 | 53.32
Modify  | 0.070915   | 4.1837     | 4.4613     |  51.9 | 23.10
Other   |            | 0.00825    |            |       |  0.05

Nlocal:    62.5 ave 66 max 58 min
Histogram: 1 1 2 1 0 4 0 2 4 1
Nghost:    1865.06 ave 1893 max 1844 min
Histogram: 2 1 2 2 4 1 1 2 0 1
Neighs:    0 ave 0 max 0 min
Histogram: 16 0 0 0 0 0 0 0 0 0
FullNghs:  18965.9 ave 19891 max 17507 min
Histogram: 1 1 1 1 1 1 3 2 0 5

Total # of neighbors = 303454
Ave neighs/atom = 303.454
Neighbor list builds = 1000
Dangerous builds not checked
Setting up Verlet run ...
  Unit style    : real
  Current step  : 6000
  Time step     : 1
Per MPI rank memory allocation (min/avg/max) = 4.578 | 4.579 | 4.579 Mbytes
Step Temp E_pair E_mol TotEng Press Volume Lx Ly Lz S/CPU 
    6000    301.50491   -10529.326            0   -9631.4959    4043.7125    778.30409    9.1984878    9.1984878    9.1984878            0 
    6100    287.26271   -10493.752            0   -9638.3323   -6426.6937    777.85326    9.1967114    9.1967114    9.1967114    45.536427 
    6200    292.36766   -10517.453            0   -9646.8321     16125.02    777.77361    9.1963975    9.1963975    9.1963975    63.833767 
    6300    297.29113   -10541.785            0   -9656.5027    15380.123    778.44679    9.1990499    9.1990499    9.1990499    51.786391 
    6400    293.12983    -10538.58            0   -9665.6893    13313.187    779.78611    9.2043226    9.2043226    9.2043226    60.631748 
    6500    284.24745   -10519.522            0   -9673.0813   -1708.2467    781.33792    9.2104242    9.2104242    9.2104242    54.031013 
    6600    292.18086   -10550.203            0    -9680.138   -7152.1527    782.77433    9.2160649    9.2160649    9.2160649    55.564972 
    6700    294.59089   -10561.018            0    -9683.777   -8698.5803    784.02398    9.2209666    9.2209666    9.2209666    58.591982 
    6800    292.60068   -10556.767            0   -9685.4522   -2188.2283    784.82194    9.2240938    9.2240938    9.2240938    51.109557 
    6900    283.93074   -10528.795            0   -9683.2979   -12794.436    785.18131    9.2255015    9.2255015    9.2255015    62.780252 
    7000     288.5907   -10539.085            0   -9679.7113   -4524.4541    785.08836    9.2251374    9.2251374    9.2251374    54.865632 
Loop time of 18.0722 on 16 procs for 1000 steps with 1000 atoms

Performance: 4.781 ns/day, 5.020 hours/ns, 55.334 timesteps/s
94.9% CPU use with 16 MPI tasks x no OpenMP threads

MPI task timing breakdown:
Section |  min time  |  avg time  |  max time  |%varavg| %total
---------------------------------------------------------------
Pair    | 2.3069     | 2.4307     | 2.6512     |   5.8 | 13.45
Neigh   | 0.77396    | 0.80343    | 0.86374    |   2.5 |  4.45
Comm    | 0.75394    | 1.0337     | 1.1874     |  10.7 |  5.72
Output  | 9.4338     | 9.7072     | 13.759     |  33.6 | 53.71
Modify  | 0.036258   | 4.0889     | 4.3622     |  51.7 | 22.63
Other   |            | 0.008253   |            |       |  0.05

Nlocal:    62.5 ave 66 max 57 min
Histogram: 1 0 0 4 1 1 4 0 2 3
Nghost:    1851.94 ave 1873 max 1822 min
Histogram: 1 0 1 2 3 2 1 1 1 4
Neighs:    0 ave 0 max 0 min
Histogram: 16 0 0 0 0 0 0 0 0 0
FullNghs:  18794.5 ave 20107 max 17085 min
Histogram: 1 0 3 1 1 3 2 0 2 3

Total # of neighbors = 300712
Ave neighs/atom = 300.712
Neighbor list builds = 1000
Dangerous builds not checked
Setting up Verlet run ...
  Unit style    : real
  Current step  : 7000
  Time step     : 1
Per MPI rank memory allocation (min/avg/max) = 4.578 | 4.579 | 4.579 Mbytes
Step Temp E_pair E_mol TotEng Press Volume Lx Ly Lz S/CPU 
    7000     288.5907   -10539.085            0   -9679.7113   -4524.4541    785.08836    9.2251374    9.2251374    9.2251374            0 
    7100    293.15771   -10545.683            0   -9672.7091   -4956.0203    784.56306    9.2230795    9.2230795    9.2230795    62.846972 
    7200    279.05616   -10491.064            0   -9660.0826    10586.673     783.8015    9.2200943    9.2200943    9.2200943    52.755089 
    7300    295.48696   -10527.011            0   -9647.1013    454.88218     783.2281    9.2178454    9.2178454    9.2178454     59.37931 
    7400    297.20837   -10518.327            0   -9633.2914    6302.4645    782.61477    9.2154387    9.2154387    9.2154387    67.364242 
    7500    305.14795   -10530.296            0   -9621.6174    21217.733      781.966    9.2128915    9.2128915    9.2128915    53.319734 
    7600    298.69915   -10503.357            0   -9613.8819    3627.0758    782.27929    9.2141217    9.2141217    9.2141217      45.9335 
    7700    301.68144   -10505.216            0   -9606.8597    3303.0003    783.18578    9.2176794    9.2176794    9.2176794    52.861972 
    7800    303.00774   -10504.439            0   -9602.1333   -6254.0963    784.45485    9.2226554    9.2226554    9.2226554    57.634103 
    7900    298.53528   -10487.192            0   -9598.2047   -19163.499    785.90549    9.2283369    9.2283369    9.2283369    59.824431 
    8000    301.34016    -10492.79            0   -9595.4503    1632.3201    786.86205    9.2320794    9.2320794    9.2320794    55.462104 
Loop time of 17.8092 on 16 procs for 1000 steps with 1000 atoms

Performance: 4.851 ns/day, 4.947 hours/ns, 56.151 timesteps/s
94.9% CPU use with 16 MPI tasks x no OpenMP threads

MPI task timing breakdown:
Section |  min time  |  avg time  |  max time  |%varavg| %total
---------------------------------------------------------------
Pair    | 2.2564     | 2.4263     | 2.6643     |   6.3 | 13.62
Neigh   | 0.7614     | 0.80361    | 0.87194    |   3.0 |  4.51
Comm    | 0.67523    | 0.9814     | 1.1868     |  12.4 |  5.51
Output  | 9.0028     | 9.2898     | 13.543     |  36.0 | 52.16
Modify  | 0.045999   | 4.2999     | 4.5868     |  53.0 | 24.14
Other   |            | 0.00821    |            |       |  0.05

Nlocal:    62.5 ave 70 max 58 min
Histogram: 4 2 1 0 2 4 1 1 0 1
Nghost:    1846.25 ave 1860 max 1835 min
Histogram: 2 1 2 4 2 0 1 0 3 1
Neighs:    0 ave 0 max 0 min
Histogram: 16 0 0 0 0 0 0 0 0 0
FullNghs:  18763.1 ave 21081 max 17325 min
Histogram: 4 2 1 0 4 2 1 0 1 1

Total # of neighbors = 300210
Ave neighs/atom = 300.21
Neighbor list builds = 1000
Dangerous builds not checked
Setting up Verlet run ...
  Unit style    : real
  Current step  : 8000
  Time step     : 1
Per MPI rank memory allocation (min/avg/max) = 4.578 | 4.579 | 4.579 Mbytes
Step Temp E_pair E_mol TotEng Press Volume Lx Ly Lz S/CPU 
    8000    301.34016    -10492.79            0   -9595.4503    1632.3201    786.86205    9.2320794    9.2320794    9.2320794            0 
    8100    304.12672   -10498.917            0   -9593.2799    2500.6222     787.7233    9.2354465    9.2354465    9.2354465    50.926185 
    8200     292.9046   -10462.754            0   -9590.5345    70.194648    788.42622    9.2381928    9.2381928    9.2381928    56.901004 
    8300    308.90221   -10508.506            0   -9588.6479    1598.1647    789.07216     9.240715     9.240715     9.240715    55.110073 
    8400    303.88848    -10490.22            0   -9585.2922     4724.708    789.40219    9.2420031    9.2420031    9.2420031    48.256273 
    8500    308.35976   -10499.037            0   -9580.7947   -9577.9341    789.53463    9.2425199    9.2425199    9.2425199    56.422545 
    8600    297.06747   -10460.937            0   -9576.3204   -8984.0694    789.27272    9.2414978    9.2414978    9.2414978    66.436751 
    8700    300.30327     -10465.8            0   -9571.5485    4336.1265    788.66728    9.2391342    9.2391342    9.2391342    57.185501 
    8800    303.81157   -10469.553            0   -9564.8544    5057.7231    788.02658    9.2366316    9.2366316    9.2366316    57.455943 
    8900    291.79244   -10426.094            0   -9557.1856    10890.385    787.45668    9.2344044    9.2344044    9.2344044    64.807371 
    9000    307.84882   -10467.102            0   -9550.3805    11724.528    787.08273    9.2329424    9.2329424    9.2329424    50.739146 
Loop time of 17.8885 on 16 procs for 1000 steps with 1000 atoms

Performance: 4.830 ns/day, 4.969 hours/ns, 55.902 timesteps/s
94.9% CPU use with 16 MPI tasks x no OpenMP threads

MPI task timing breakdown:
Section |  min time  |  avg time  |  max time  |%varavg| %total
---------------------------------------------------------------
Pair    | 2.2485     | 2.4076     | 2.7013     |   6.4 | 13.46
Neigh   | 0.76026    | 0.80476    | 0.87459    |   2.7 |  4.50
Comm    | 0.64016    | 1.0033     | 1.2069     |  12.2 |  5.61
Output  | 8.9708     | 9.264      | 13.612     |  36.9 | 51.79
Modify  | 0.051935   | 4.4006     | 4.6939     |  53.5 | 24.60
Other   |            | 0.008242   |            |       |  0.05

Nlocal:    62.5 ave 67 max 59 min
Histogram: 2 3 1 1 0 4 1 2 1 1
Nghost:    1849.94 ave 1879 max 1826 min
Histogram: 3 2 1 1 1 2 4 1 0 1
Neighs:    0 ave 0 max 0 min
Histogram: 16 0 0 0 0 0 0 0 0 0
FullNghs:  18745.4 ave 20132 max 17392 min
Histogram: 2 2 2 0 1 1 4 1 1 2

Total # of neighbors = 299926
Ave neighs/atom = 299.926
Neighbor list builds = 1000
Dangerous builds not checked
Setting up Verlet run ...
  Unit style    : real
  Current step  : 9000
  Time step     : 1
Per MPI rank memory allocation (min/avg/max) = 4.578 | 4.579 | 4.579 Mbytes
Step Temp E_pair E_mol TotEng Press Volume Lx Ly Lz S/CPU 
    9000    307.84882   -10467.102            0   -9550.3805    11724.528    787.08273    9.2329424    9.2329424    9.2329424            0 
    9100    298.30711    -10429.55            0    -9541.242    3457.1387    787.15143     9.233211     9.233211     9.233211    68.792005 
    9200    298.38213   -10421.726            0   -9533.1945    34.376394    787.25985     9.233635     9.233635     9.233635    50.916926 
    9300    309.20046   -10447.112            0   -9526.3661    -2700.747    787.70675    9.2353818    9.2353818    9.2353818    59.732421 
    9400    301.50183   -10418.539            0    -9520.718   -7969.7124    788.24334    9.2374784    9.2374784    9.2374784      54.0039 
    9500    309.39733   -10437.211            0   -9515.8791    7984.5634     788.5269     9.238586     9.238586     9.238586    65.224895 
    9600    307.81825   -10428.328            0   -9511.6982    1593.4724    789.25304     9.241421     9.241421     9.241421    46.763905 
    9700    309.74508    -10428.51            0   -9506.1419    3517.7117    790.29035    9.2454678    9.2454678    9.2454678      42.7034 
    9800    305.45684    -10410.57            0   -9500.9715   -826.87285    791.43933    9.2499463    9.2499463    9.2499463    56.122306 
    9900    306.43214   -10409.938            0   -9497.4353    5673.3002    792.62344    9.2545571    9.2545571    9.2545571    47.271424 
   10000    314.64381   -10432.545            0   -9495.5897   -1214.0525    793.61661    9.2584208    9.2584208    9.2584208    49.613296 
Loop time of 18.8696 on 16 procs for 1000 steps with 1000 atoms

Performance: 4.579 ns/day, 5.242 hours/ns, 52.995 timesteps/s
94.9% CPU use with 16 MPI tasks x no OpenMP threads

MPI task timing breakdown:
Section |  min time  |  avg time  |  max time  |%varavg| %total
---------------------------------------------------------------
Pair    | 2.2643     | 2.3929     | 2.6346     |   6.5 | 12.68
Neigh   | 0.7649     | 0.80158    | 0.87052    |   2.8 |  4.25
Comm    | 0.74022    | 1.058      | 1.2252     |  12.4 |  5.61
Output  | 9.8569     | 10.152     | 14.534     |  35.5 | 53.80
Modify  | 0.081712   | 4.4566     | 4.7573     |  53.5 | 23.62
Other   |            | 0.008223   |            |       |  0.04

Nlocal:    62.5 ave 69 max 53 min
Histogram: 1 1 0 0 1 5 3 1 2 2
Nghost:    1847.31 ave 1878 max 1816 min
Histogram: 1 1 2 0 3 4 2 0 2 1
Neighs:    0 ave 0 max 0 min
Histogram: 16 0 0 0 0 0 0 0 0 0
FullNghs:  18589 ave 20614 max 15655 min
Histogram: 1 1 0 0 2 6 1 1 1 3

Total # of neighbors = 297424
Ave neighs/atom = 297.424
Neighbor list builds = 1000
Dangerous builds not checked
Setting up Verlet run ...
  Unit style    : real
  Current step  : 10000
  Time step     : 1
Per MPI rank memory allocation (min/avg/max) = 4.578 | 4.579 | 4.579 Mbytes
Step Temp E_pair E_mol TotEng Press Volume Lx Ly Lz S/CPU 
   10000    314.64381   -10432.545            0   -9495.5897   -1214.0525    793.61661    9.2584208    9.2584208    9.2584208            0 
   10100    317.29119   -10441.382            0   -9496.5431    -16820.98    794.20754    9.2607182    9.2607182    9.2607182    47.609705 
   10200    304.97437   -10407.385            0   -9499.2234   -5415.5497    793.74954    9.2589377    9.2589377    9.2589377    61.334898 
   10300     308.7378   -10426.187            0    -9506.819   -3110.0558    792.37243    9.2535801    9.2535801    9.2535801    49.150137 
   10400    303.19372   -10420.305            0   -9517.4456    13753.622     790.5384     9.246435     9.246435     9.246435    58.378703 
   10500    305.52696   -10439.235            0   -9529.4275    9413.6619    788.76346    9.2395097    9.2395097    9.2395097    51.881781 
   10600    299.68085   -10435.145            0   -9542.7465    -6191.416    786.93896    9.2323802    9.2323802    9.2323802    65.709326 
   10700    305.88369   -10467.722            0   -9556.8524    5211.9641    785.01588    9.2248536    9.2248536    9.2248536    57.013588 
   10800    300.22987   -10462.296            0   -9568.2625    27999.091    783.75211    9.2199007    9.2199007    9.2199007    54.367381 
   10900    293.23391   -10450.079            0   -9576.8783    4216.8329    783.56476     9.219166     9.219166     9.219166    60.120188 
   11000    293.81573   -10460.962            0   -9586.0286    7877.3882    784.02373    9.2209656    9.2209656    9.2209656    50.086126 
Loop time of 18.1818 on 16 procs for 1000 steps with 1000 atoms

Performance: 4.752 ns/day, 5.050 hours/ns, 55.000 timesteps/s
94.9% CPU use with 16 MPI tasks x no OpenMP threads

MPI task timing breakdown:
Section |  min time  |  avg time  |  max time  |%varavg| %total
---------------------------------------------------------------
Pair    | 2.3356     | 2.438      | 2.6043     |   5.1 | 13.41
Neigh   | 0.7837     | 0.81393    | 0.88434    |   3.1 |  4.48
Comm    | 0.74498    | 0.98138    | 1.113      |  10.8 |  5.40
Output  | 9.2663     | 9.5579     | 13.882     |  36.1 | 52.57
Modify  | 0.057181   | 4.3814     | 4.6735     |  53.3 | 24.10
Other   |            | 0.00911    |            |       |  0.05

Nlocal:    62.5 ave 66 max 58 min
Histogram: 1 0 2 2 0 1 5 3 1 1
Nghost:    1846.38 ave 1862 max 1833 min
Histogram: 2 0 3 1 1 5 2 1 0 1
Neighs:    0 ave 0 max 0 min
Histogram: 16 0 0 0 0 0 0 0 0 0
FullNghs:  18838.1 ave 20134 max 17484 min
Histogram: 1 0 2 2 2 3 2 3 0 1

Total # of neighbors = 301410
Ave neighs/atom = 301.41
Neighbor list builds = 1000
Dangerous builds not checked
Setting up Verlet run ...
  Unit style    : real
  Current step  : 11000
  Time step     : 1
Per MPI rank memory allocation (min/avg/max) = 4.578 | 4.579 | 4.579 Mbytes
Step Temp E_pair E_mol TotEng Press Volume Lx Ly Lz S/CPU 
   11000    293.81573   -10460.962            0   -9586.0286    7877.3882    784.02373    9.2209656    9.2209656    9.2209656            0 
   11100    297.54558    -10479.48            0   -9593.4401   -609.14421    785.04318    9.2249605    9.2249605    9.2249605    66.053376 
   11200    304.53023   -10507.308            0   -9600.4691   -1615.4271    786.04528     9.228884     9.228884     9.228884    57.454852 
   11300    293.26838   -10478.137            0   -9604.8342   -7352.8264     787.0522    9.2328231    9.2328231    9.2328231    56.991443 
   11400    296.10226   -10489.442            0   -9607.6999   -9539.8871    787.30746    9.2338211    9.2338211    9.2338211    40.836554 
   11500    300.52835   -10506.408            0   -9611.4859    3519.6968    786.60377    9.2310692    9.2310692    9.2310692     57.28791 
   11600    299.26113   -10504.394            0   -9613.2455   -11914.077    785.14309    9.2253518    9.2253518    9.2253518    48.515299 
   11700    293.01183   -10485.883            0   -9613.3441     4867.662    783.50995     9.218951     9.218951     9.218951    66.197865 
   11800    303.56532   -10517.176            0   -9613.2101    10469.822    782.07176    9.2133068    9.2133068    9.2133068    53.920564 
   11900    298.50471   -10500.608            0   -9611.7115    6392.4927    781.08898    9.2094459    9.2094459    9.2094459    69.121446 
   12000    287.94389   -10469.062            0    -9611.614    6160.7512    780.78867    9.2082655    9.2082655    9.2082655    53.984716 
Loop time of 17.929 on 16 procs for 1000 steps with 1000 atoms

Performance: 4.819 ns/day, 4.980 hours/ns, 55.776 timesteps/s
94.9% CPU use with 16 MPI tasks x no OpenMP threads

MPI task timing breakdown:
Section |  min time  |  avg time  |  max time  |%varavg| %total
---------------------------------------------------------------
Pair    | 2.2751     | 2.4085     | 2.5756     |   4.6 | 13.43
Neigh   | 0.75811    | 0.80034    | 0.85505    |   2.5 |  4.46
Comm    | 0.8148     | 1.0362     | 1.2021     |   9.0 |  5.78
Output  | 9.2948     | 9.5685     | 13.625     |  33.9 | 53.37
Modify  | 0.050206   | 4.1072     | 4.3812     |  51.7 | 22.91
Other   |            | 0.008196   |            |       |  0.05

Nlocal:    62.5 ave 67 max 59 min
Histogram: 2 1 1 4 0 2 5 0 0 1
Nghost:    1870.75 ave 1883 max 1858 min
Histogram: 1 2 1 2 2 1 3 1 1 2
Neighs:    0 ave 0 max 0 min
Histogram: 16 0 0 0 0 0 0 0 0 0
FullNghs:  18891.6 ave 20384 max 17693 min
Histogram: 2 1 0 4 2 2 4 0 0 1

Total # of neighbors = 302266
Ave neighs/atom = 302.266
Neighbor list builds = 1000
Dangerous builds not checked
Setting up Verlet run ...
  Unit style    : real
  Current step  : 12000
  Time step     : 1
Per MPI rank memory allocation (min/avg/max) = 4.578 | 4.579 | 4.579 Mbytes
Step Temp E_pair E_mol TotEng Press Volume Lx Ly Lz S/CPU 
   12000    287.94389   -10469.062            0    -9611.614    6160.7512    780.78867    9.2082655    9.2082655    9.2082655            0 
   12100    295.31193   -10490.562            0   -9611.1732    1825.5079    781.06834    9.2093648    9.2093648    9.2093648    59.876741 
   12200    295.12317   -10489.222            0   -9610.3961    7773.4819    781.63713    9.2115998    9.2115998    9.2115998    69.881558 
   12300    295.02468   -10487.911            0   -9609.3777   -4276.6289    782.71734    9.2158413    9.2158413    9.2158413    54.001491 
   12400     299.7701   -10499.159            0   -9606.4952    4187.8652    783.85824    9.2203168    9.2203168    9.2203168    63.443001 
   12500    297.62914   -10486.777            0    -9600.488   -11975.698    785.01867    9.2248645    9.2248645    9.2248645    42.597769 
   12600    294.89898   -10470.628            0   -9592.4696    3383.0505    785.87232    9.2282071    9.2282071    9.2282071    67.831525 
   12700    296.87119   -10467.363            0   -9583.3309    1294.4266    786.50657     9.230689     9.230689     9.230689    48.756675 
   12800    299.22425   -10464.645            0   -9573.6065   -2366.5618     786.8723    9.2321195    9.2321195    9.2321195    62.533324 
   12900    306.86626   -10476.625            0   -9562.8293    5352.5487    786.96099    9.2324664    9.2324664    9.2324664    52.707183 
   13000    306.76554   -10465.288            0   -9551.7922    6759.5438    787.17475    9.2333022    9.2333022    9.2333022    63.637882 
Loop time of 17.4697 on 16 procs for 1000 steps with 1000 atoms

Performance: 4.946 ns/day, 4.853 hours/ns, 57.242 timesteps/s
94.9% CPU use with 16 MPI tasks x no OpenMP threads

MPI task timing breakdown:
Section |  min time  |  avg time  |  max time  |%varavg| %total
---------------------------------------------------------------
Pair    | 2.2138     | 2.3781     | 2.5877     |   5.6 | 13.61
Neigh   | 0.7628     | 0.79205    | 0.8506     |   2.4 |  4.53
Comm    | 0.79196    | 1.0599     | 1.2533     |  10.1 |  6.07
Output  | 8.693      | 8.9773     | 13.171     |  36.1 | 51.39
Modify  | 0.059529   | 4.2542     | 4.5383     |  52.5 | 24.35
Other   |            | 0.00817    |            |       |  0.05

Nlocal:    62.5 ave 68 max 58 min
Histogram: 2 1 2 0 4 1 2 0 3 1
Nghost:    1864.69 ave 1889 max 1834 min
Histogram: 1 0 1 3 1 2 3 2 2 1
Neighs:    0 ave 0 max 0 min
Histogram: 16 0 0 0 0 0 0 0 0 0
FullNghs:  18747.6 ave 20502 max 17196 min
Histogram: 2 1 2 2 2 2 1 1 2 1

Total # of neighbors = 299962
Ave neighs/atom = 299.962
Neighbor list builds = 1000
Dangerous builds not checked
Setting up Verlet run ...
  Unit style    : real
  Current step  : 13000
  Time step     : 1
Per MPI rank memory allocation (min/avg/max) = 4.578 | 4.579 | 4.579 Mbytes
Step Temp E_pair E_mol TotEng Press Volume Lx Ly Lz S/CPU 
   13000    306.76554   -10465.288            0   -9551.7922    6759.5438    787.17475    9.2333022    9.2333022    9.2333022            0 
   13100    316.91064   -10489.741            0   -9546.0357    1075.3321    787.62088    9.2350462    9.2350462    9.2350462    50.816417 
   13200    307.54856   -10456.589            0   -9540.7622   -9573.2549    787.90873    9.2361711    9.2361711    9.2361711    63.843762 
   13300    309.59723   -10459.264            0   -9537.3363    7486.5719    787.46349     9.234431     9.234431     9.234431     63.60038 
   13400    307.39629   -10451.648            0   -9536.2739   -7614.8691    786.99903    9.2326151    9.2326151    9.2326151     50.46858 
   13500    318.00076   -10485.783            0   -9538.8308    5566.4857    786.48691    9.2306121    9.2306121    9.2306121    62.369061 
   13600    308.27512    -10460.92            0   -9542.9298    8037.4041    786.07039    9.2289823    9.2289823    9.2289823     56.52101 
   13700      319.627   -10504.218            0   -9552.4233   -10648.068    785.72012    9.2276113    9.2276113    9.2276113     53.94498 
   13800    303.29823   -10464.611            0   -9561.4407    8696.5493    785.18488    9.2255155    9.2255155    9.2255155    55.995644 
   13900    293.77967   -10448.772            0   -9573.9463    3451.5835    784.43766    9.2225881    9.2225881    9.2225881    60.271648 
   14000    302.81827   -10488.935            0   -9587.1935    2232.3702    783.65391    9.2195156    9.2195156    9.2195156    51.832301 
Loop time of 17.6886 on 16 procs for 1000 steps with 1000 atoms

Performance: 4.884 ns/day, 4.914 hours/ns, 56.534 timesteps/s
94.9% CPU use with 16 MPI tasks x no OpenMP threads

MPI task timing breakdown:
Section |  min time  |  avg time  |  max time  |%varavg| %total
---------------------------------------------------------------
Pair    | 2.2574     | 2.3819     | 2.5853     |   5.1 | 13.47
Neigh   | 0.76204    | 0.79334    | 0.85226    |   2.2 |  4.49
Comm    | 0.75742    | 1.0193     | 1.1739     |   9.4 |  5.76
Output  | 9.315      | 9.5753     | 13.426     |  32.1 | 54.13
Modify  | 0.058916   | 3.9106     | 4.1709     |  50.3 | 22.11
Other   |            | 0.00819    |            |       |  0.05

Nlocal:    62.5 ave 69 max 56 min
Histogram: 2 1 0 2 1 4 4 0 1 1
Nghost:    1854.44 ave 1888 max 1828 min
Histogram: 1 1 2 4 1 3 2 1 0 1
Neighs:    0 ave 0 max 0 min
Histogram: 16 0 0 0 0 0 0 0 0 0
FullNghs:  18837.9 ave 20819 max 16878 min
Histogram: 2 1 0 1 2 4 4 0 1 1

Total # of neighbors = 301406
Ave neighs/atom = 301.406
Neighbor list builds = 1000
Dangerous builds not checked
Setting up Verlet run ...
  Unit style    : real
  Current step  : 14000
  Time step     : 1
Per MPI rank memory allocation (min/avg/max) = 4.578 | 4.579 | 4.579 Mbytes
Step Temp E_pair E_mol TotEng Press Volume Lx Ly Lz S/CPU 
   14000    302.81827   -10488.935            0   -9587.1935    2232.3702    783.65391    9.2195156    9.2195156    9.2195156            0 
   14100    299.16545   -10489.658            0   -9598.7944    9237.4623    783.08259    9.2172745    9.2172745    9.2172745     65.68113 
   14200     297.8422   -10494.555            0    -9607.632   -1544.2809    783.36257    9.2183729    9.2183729    9.2183729    53.305163 
   14300     293.9831    -10487.57            0   -9612.1382   -487.02842     784.3862    9.2223864    9.2223864    9.2223864    60.534169 
   14400     296.2577   -10496.948            0   -9614.7428   -10662.041     785.3295    9.2260819    9.2260819    9.2260819    72.459267 
   14500    301.09091   -10513.371            0   -9616.7736    7393.4856     785.5892    9.2270987    9.2270987    9.2270987    53.187698 
   14600     297.4592   -10502.934            0   -9617.1518   -7414.2007    785.43823    9.2265076    9.2265076    9.2265076    64.534856 
   14700    304.54941   -10525.495            0    -9618.599    4451.6001    784.99169    9.2247588    9.2247588    9.2247588    47.180919 
   14800    304.37014   -10523.994            0   -9617.6316    3827.7171    784.43214    9.2225664    9.2225664    9.2225664     61.58645 
   14900    295.44937   -10497.986            0   -9618.1881   -5081.8512    784.09054    9.2212275    9.2212275    9.2212275    48.597166 
   15000    305.95974   -10529.482            0   -9618.3859     1885.821     783.5894    9.2192626    9.2192626    9.2192626    63.350613 
Loop time of 17.2397 on 16 procs for 1000 steps with 1000 atoms

Performance: 5.012 ns/day, 4.789 hours/ns, 58.006 timesteps/s
95.0% CPU use with 16 MPI tasks x no OpenMP threads

MPI task timing breakdown:
Section |  min time  |  avg time  |  max time  |%varavg| %total
---------------------------------------------------------------
Pair    | 2.2996     | 2.4492     | 2.6221     |   5.9 | 14.21
Neigh   | 0.76395    | 0.81155    | 0.86718    |   2.5 |  4.71
Comm    | 0.75281    | 0.98083    | 1.1786     |  11.4 |  5.69
Output  | 8.9681     | 9.2188     | 12.93      |  31.6 | 53.47
Modify  | 0.059388   | 3.771      | 4.0219     |  49.4 | 21.87
Other   |            | 0.00829    |            |       |  0.05

Nlocal:    62.5 ave 66 max 58 min
Histogram: 1 0 2 2 0 3 1 5 1 1
Nghost:    1849.38 ave 1860 max 1831 min
Histogram: 1 0 0 0 4 1 3 4 2 1
Neighs:    0 ave 0 max 0 min
Histogram: 16 0 0 0 0 0 0 0 0 0
FullNghs:  18833.4 ave 19986 max 17551 min
Histogram: 1 0 3 1 2 1 3 3 1 1

Total # of neighbors = 301334
Ave neighs/atom = 301.334
Neighbor list builds = 1000
Dangerous builds not checked
Setting up Verlet run ...
  Unit style    : real
  Current step  : 15000
  Time step     : 1
Per MPI rank memory allocation (min/avg/max) = 4.578 | 4.579 | 4.579 Mbytes
Step Temp E_pair E_mol TotEng Press Volume Lx Ly Lz S/CPU 
   15000    305.95974   -10529.482            0   -9618.3859     1885.821     783.5894    9.2192626    9.2192626    9.2192626            0 
   15100    299.98999   -10510.492            0   -9617.1732   -2069.2218    783.18904    9.2176922    9.2176922    9.2176922    47.043919 
   15200    302.71036   -10518.098            0   -9616.6785    21462.258    782.99774    9.2169416    9.2169416    9.2169416    55.390083 
   15300    306.26797   -10526.806            0   -9614.7927   -1146.7512    783.09979     9.217342     9.217342     9.217342    45.038635 
   15400    292.63752   -10483.628            0   -9612.2038   -446.29488    782.70802    9.2158047    9.2158047    9.2158047    60.012924 
   15500    301.86112   -10509.511            0     -9610.62   -10391.281     781.8604    9.2124768    9.2124768    9.2124768    54.255169 
   15600    300.85131   -10503.965            0   -9608.0813    -3515.842    780.46889    9.2070083    9.2070083    9.2070083    64.408927 
   15700    309.54161   -10525.951            0   -9604.1891   -9148.9862    778.48892    9.1992159    9.1992159    9.1992159     69.81738 
   15800     308.8788   -10516.921            0   -9597.1328    7114.2916    776.32731    9.1906936    9.1906936    9.1906936    51.099856 
   15900    306.31182   -10502.014            0   -9589.8695    18930.641     774.6663    9.1841342    9.1841342    9.1841342    56.941744 
   16000     301.7567   -10481.559            0   -9582.9793    18319.279    773.99805    9.1814926    9.1814926    9.1814926    52.690858 
Loop time of 18.2567 on 16 procs for 1000 steps with 1000 atoms

Performance: 4.733 ns/day, 5.071 hours/ns, 54.774 timesteps/s
94.9% CPU use with 16 MPI tasks x no OpenMP threads

MPI task timing breakdown:
Section |  min time  |  avg time  |  max time  |%varavg| %total
---------------------------------------------------------------
Pair    | 2.3265     | 2.4882     | 2.7482     |   6.1 | 13.63
Neigh   | 0.78722    | 0.81492    | 0.88993    |   2.5 |  4.46
Comm    | 0.66387    | 0.99869    | 1.1878     |  11.7 |  5.47
Output  | 9.5831     | 9.8546     | 13.877     |  33.1 | 53.98
Modify  | 0.069383   | 4.092      | 4.364      |  51.3 | 22.41
Other   |            | 0.008315   |            |       |  0.05

Nlocal:    62.5 ave 69 max 54 min
Histogram: 1 0 2 0 4 0 4 2 1 2
Nghost:    1869.56 ave 1887 max 1858 min
Histogram: 3 2 1 2 3 2 1 0 1 1
Neighs:    0 ave 0 max 0 min
Histogram: 16 0 0 0 0 0 0 0 0 0
FullNghs:  19054.8 ave 21033 max 16366 min
Histogram: 1 0 2 1 1 3 3 2 1 2

Total # of neighbors = 304876
Ave neighs/atom = 304.876
Neighbor list builds = 1000
Dangerous builds not checked
Setting up Verlet run ...
  Unit style    : real
  Current step  : 16000
  Time step     : 1
Per MPI rank memory allocation (min/avg/max) = 4.578 | 4.579 | 4.579 Mbytes
Step Temp E_pair E_mol TotEng Press Volume Lx Ly Lz S/CPU 
   16000     301.7567   -10481.559            0   -9582.9793    18319.279    773.99805    9.1814926    9.1814926    9.1814926            0 
   16100    303.66435   -10478.481            0   -9574.2207    14982.392    774.37919    9.1829994    9.1829994    9.1829994    66.421903 
   16200    307.19409     -10479.4            0   -9564.6284    10854.072    775.66302    9.1880714    9.1880714    9.1880714    75.299632 
   16300    313.67196    -10489.02            0   -9554.9583    3661.2045    777.61811    9.1957846    9.1957846    9.1957846    55.165148 
   16400    308.34949    -10464.06            0   -9545.8474   -5967.3426    779.99383    9.2051398    9.2051398    9.2051398    55.882741 
   16500    308.37602   -10457.235            0   -9538.9439    8737.3175    782.41289    9.2146462    9.2146462    9.2146462    50.782982 
   16600    318.47684   -10480.251            0   -9531.8816   -2777.9967    785.15146    9.2253846    9.2253846    9.2253846    66.166425 
   16700     303.4188    -10430.28            0   -9526.7506    2305.7924    787.66361    9.2352132    9.2352132    9.2352132    53.366634 
   16800    304.97711   -10431.819            0   -9523.6496   -16623.683    789.78383    9.2434922    9.2434922    9.2434922    60.200129 
   16900    316.32318    -10462.05            0   -9520.0935   -26142.375     790.9423    9.2480095    9.2480095    9.2480095    56.819213 
   17000    299.38731   -10408.913            0   -9517.3886   -17850.219    790.81819    9.2475258    9.2475258    9.2475258    70.837308 
Loop time of 16.6229 on 16 procs for 1000 steps with 1000 atoms

Performance: 5.198 ns/day, 4.617 hours/ns, 60.158 timesteps/s
95.0% CPU use with 16 MPI tasks x no OpenMP threads

MPI task timing breakdown:
Section |  min time  |  avg time  |  max time  |%varavg| %total
---------------------------------------------------------------
Pair    | 2.282      | 2.3787     | 2.5106     |   4.3 | 14.31
Neigh   | 0.76336    | 0.78973    | 0.83835    |   2.2 |  4.75
Comm    | 0.91509    | 1.072      | 1.189      |   8.0 |  6.45
Output  | 7.9919     | 8.2666     | 12.338     |  36.6 | 49.73
Modify  | 0.035489   | 4.1077     | 4.3828     |  51.9 | 24.71
Other   |            | 0.008138   |            |       |  0.05

Nlocal:    62.5 ave 69 max 58 min
Histogram: 3 1 0 5 1 3 2 0 0 1
Nghost:    1844.88 ave 1861 max 1828 min
Histogram: 2 0 2 1 3 2 2 1 1 2
Neighs:    0 ave 0 max 0 min
Histogram: 16 0 0 0 0 0 0 0 0 0
FullNghs:  18641 ave 20555 max 17304 min
Histogram: 2 2 0 5 1 3 2 0 0 1

Total # of neighbors = 298256
Ave neighs/atom = 298.256
Neighbor list builds = 1000
Dangerous builds not checked
Setting up Verlet run ...
  Unit style    : real
  Current step  : 17000
  Time step     : 1
Per MPI rank memory allocation (min/avg/max) = 4.578 | 4.579 | 4.579 Mbytes
Step Temp E_pair E_mol TotEng Press Volume Lx Ly Lz S/CPU 
   17000    299.38731   -10408.913            0   -9517.3886   -17850.219    790.81819    9.2475258    9.2475258    9.2475258            0 
   17100    318.75001   -10467.522            0   -9518.3391    -8013.593    789.77275     9.243449     9.243449     9.243449    78.993054 
   17200    318.13669   -10468.505            0    -9521.148    463.79041    788.48863    9.2384365    9.2384365    9.2384365    62.520414 
   17300    307.26383   -10441.238            0   -9526.2584    11577.728    787.20165    9.2334074    9.2334074    9.2334074    83.979501 
   17400    307.78718   -10453.852            0   -9537.3148   -4843.1784    786.28544    9.2298238    9.2298238    9.2298238    76.226916 
   17500    311.18053   -10481.336            0   -9554.6939    7046.4348    785.33804    9.2261153    9.2261153    9.2261153    54.774156 
   17600    310.17373   -10496.672            0   -9573.0279    23229.488    784.60147      9.22323      9.22323      9.22323    83.222554 
   17700    304.78431   -10496.026            0   -9588.4308     2135.532    784.50798    9.2228637    9.2228637    9.2228637    75.655426 
   17800    311.12857   -10525.223            0   -9598.7349    22659.932    784.32776    9.2221574    9.2221574    9.2221574       51.323 
   17900    307.30461   -10520.639            0   -9605.5381     9462.789    784.67329    9.2235114    9.2235114    9.2235114    82.779158 
   18000    299.19402   -10502.128            0   -9611.1789    9730.6771    785.48809    9.2267029    9.2267029    9.2267029    63.718078 
Loop time of 14.443 on 16 procs for 1000 steps with 1000 atoms

Performance: 5.982 ns/day, 4.012 hours/ns, 69.238 timesteps/s
95.2% CPU use with 16 MPI tasks x no OpenMP threads

MPI task timing breakdown:
Section |  min time  |  avg time  |  max time  |%varavg| %total
---------------------------------------------------------------
Pair    | 2.3038     | 2.4104     | 2.5513     |   4.9 | 16.69
Neigh   | 0.77825    | 0.80082    | 0.85614    |   2.2 |  5.54
Comm    | 0.81232    | 1.0086     | 1.1266     |   9.4 |  6.98
Output  | 6.6764     | 6.8974     | 10.163     |  32.1 | 47.76
Modify  | 0.051992   | 3.3175     | 3.5387     |  46.3 | 22.97
Other   |            | 0.008236   |            |       |  0.06

Nlocal:    62.5 ave 65 max 60 min
Histogram: 2 0 2 0 4 0 3 0 4 1
Nghost:    1844.94 ave 1869 max 1827 min
Histogram: 1 2 3 1 3 3 1 0 1 1
Neighs:    0 ave 0 max 0 min
Histogram: 16 0 0 0 0 0 0 0 0 0
FullNghs:  18793.5 ave 19595 max 17991 min
Histogram: 2 1 1 3 1 2 0 3 2 1

Total # of neighbors = 300696
Ave neighs/atom = 300.696
Neighbor list builds = 1000
Dangerous builds not checked
Setting up Verlet run ...
  Unit style    : real
  Current step  : 18000
  Time step     : 1
Per MPI rank memory allocation (min/avg/max) = 4.578 | 4.579 | 4.579 Mbytes
Step Temp E_pair E_mol TotEng Press Volume Lx Ly Lz S/CPU 
   18000    299.19402   -10502.128            0   -9611.1789    9730.6771    785.48809    9.2267029    9.2267029    9.2267029            0 
   18100    298.40629     -10504.3            0   -9615.6972   -2124.7757    786.38907    9.2302293    9.2302293    9.2302293    76.843462 
   18200    305.43513    -10528.58            0   -9619.0468   -15608.776    787.22967    9.2335169    9.2335169    9.2335169    79.017183 
   18300    300.96196   -10518.371            0   -9622.1582    3230.9235    787.69516    9.2353365    9.2353365    9.2353365     60.41479 
   18400    295.12849   -10504.353            0   -9625.5106   -12199.234     787.5847    9.2349048    9.2349048    9.2349048    74.893973 
   18500    292.71462   -10500.572            0   -9628.9176   -15934.308    786.51565    9.2307245    9.2307245    9.2307245     92.40568 
   18600    291.92441   -10499.484            0   -9630.1826    13285.508    784.72916    9.2237303    9.2237303    9.2237303    58.900922 
   18700    300.39063   -10525.321            0   -9630.8085    -7023.329    782.87385    9.2164555    9.2164555    9.2164555    70.807384 
   18800    308.70909   -10550.083            0   -9630.7999   -4608.6982    781.09918     9.209486     9.209486     9.209486     57.15114 
   18900    303.76162   -10533.037            0   -9628.4869    3508.4563    779.64305    9.2037597    9.2037597    9.2037597    68.723737 
   19000    291.84702   -10496.345            0   -9627.2742    10842.671    778.56758    9.1995257    9.1995257    9.1995257    60.789631 
Loop time of 14.5995 on 16 procs for 1000 steps with 1000 atoms

Performance: 5.918 ns/day, 4.055 hours/ns, 68.496 timesteps/s
95.2% CPU use with 16 MPI tasks x no OpenMP threads

MPI task timing breakdown:
Section |  min time  |  avg time  |  max time  |%varavg| %total
---------------------------------------------------------------
Pair    | 2.2965     | 2.4222     | 2.5411     |   5.1 | 16.59
Neigh   | 0.76421    | 0.80496    | 0.84429    |   2.5 |  5.51
Comm    | 0.84673    | 0.99748    | 1.1645     |  10.1 |  6.83
Output  | 6.9886     | 7.2002     | 10.316     |  30.0 | 49.32
Modify  | 0.050743   | 3.1664     | 3.3782     |  45.2 | 21.69
Other   |            | 0.008294   |            |       |  0.06

Nlocal:    62.5 ave 70 max 56 min
Histogram: 2 0 4 2 0 3 1 2 0 2
Nghost:    1867.12 ave 1882 max 1854 min
Histogram: 1 1 1 2 2 6 1 1 0 1
Neighs:    0 ave 0 max 0 min
Histogram: 16 0 0 0 0 0 0 0 0 0
FullNghs:  18971.2 ave 21369 max 16879 min
Histogram: 2 2 2 2 0 2 3 1 0 2

Total # of neighbors = 303540
Ave neighs/atom = 303.54
Neighbor list builds = 1000
Dangerous builds not checked
Setting up Verlet run ...
  Unit style    : real
  Current step  : 19000
  Time step     : 1
Per MPI rank memory allocation (min/avg/max) = 4.578 | 4.579 | 4.579 Mbytes
Step Temp E_pair E_mol TotEng Press Volume Lx Ly Lz S/CPU 
   19000    291.84702   -10496.345            0   -9627.2742    10842.671    778.56758    9.1995257    9.1995257    9.1995257            0 
   19100    302.73029   -10525.828            0   -9624.3487    15056.319    778.06576    9.1975488    9.1975488    9.1975488    53.806274 
   19200    300.87058   -10518.969            0    -9623.028    7309.8029    778.60724    9.1996819    9.1996819    9.1996819    55.838157 
   19300    297.87257   -10506.577            0   -9619.5635   -6140.9307    779.79792    9.2043691    9.2043691    9.2043691    57.662707 
   19400    295.72114   -10495.274            0   -9614.6669    1546.8092    781.13455     9.209625     9.209625     9.209625    70.569805 
   19500    304.49111   -10516.137            0   -9609.4145   -1629.1165    782.65275    9.2155878    9.2155878    9.2155878    48.734177 
   19600    307.10222   -10516.391            0   -9601.8932    5321.9207    784.34468    9.2222237    9.2222237    9.2222237    67.165172 
   19700    291.94887   -10459.945            0   -9590.5708    3617.4009    786.33358    9.2300122    9.2300122    9.2300122    55.214117 
   19800    309.03123   -10501.119            0   -9580.8772    -18142.36     788.1599    9.2371525    9.2371525    9.2371525    51.523694 
   19900    318.62903   -10521.182            0   -9572.3588   -7911.4577    789.50217    9.2423932    9.2423932    9.2423932    52.562886 
   20000    295.53388    -10442.44            0   -9562.3906   -9555.8983    790.39529    9.2458771    9.2458771    9.2458771    56.297332 
Loop time of 17.7723 on 16 procs for 1000 steps with 1000 atoms

Performance: 4.862 ns/day, 4.937 hours/ns, 56.267 timesteps/s
94.9% CPU use with 16 MPI tasks x no OpenMP threads

MPI task timing breakdown:
Section |  min time  |  avg time  |  max time  |%varavg| %total
---------------------------------------------------------------
Pair    | 2.289      | 2.4493     | 2.6347     |   5.9 | 13.78
Neigh   | 0.77793    | 0.81012    | 0.86753    |   2.8 |  4.56
Comm    | 0.75498    | 0.979      | 1.1713     |  11.7 |  5.51
Output  | 9.0958     | 9.3709     | 13.447     |  34.4 | 52.73
Modify  | 0.078855   | 4.1546     | 4.4297     |  51.6 | 23.38
Other   |            | 0.008303   |            |       |  0.05

Nlocal:    62.5 ave 68 max 59 min
Histogram: 3 2 2 1 1 3 2 1 0 1
Nghost:    1843.81 ave 1857 max 1827 min
Histogram: 2 0 1 2 0 2 2 3 2 2
Neighs:    0 ave 0 max 0 min
Histogram: 16 0 0 0 0 0 0 0 0 0
FullNghs:  18664.5 ave 20309 max 17586 min
Histogram: 3 2 2 1 1 2 2 2 0 1

Total # of neighbors = 298632
Ave neighs/atom = 298.632
Neighbor list builds = 1000
Dangerous builds not checked
Setting up Verlet run ...
  Unit style    : real
  Current step  : 20000
  Time step     : 1
Per MPI rank memory allocation (min/avg/max) = 4.578 | 4.579 | 4.579 Mbytes
Step Temp E_pair E_mol TotEng Press Volume Lx Ly Lz S/CPU 
   20000    295.53388    -10442.44            0   -9562.3906   -9555.8983    790.39529    9.2458771    9.2458771    9.2458771            0 
   20100    302.89484   -10458.038            0    -9556.069   -7911.6387    790.97542    9.2481386    9.2481386    9.2481386    69.496541 
   20200    304.53316   -10455.334            0   -9548.4867   -7557.0492    791.32699    9.2495086    9.2495086    9.2495086      51.4791 
   20300     308.6682   -10463.569            0   -9544.4078   -16673.926    790.87991    9.2477663    9.2477663    9.2477663    68.482007 
   20400     306.7809   -10454.858            0   -9541.3168   -7149.0812    789.29972    9.2416032    9.2416032    9.2416032    57.320989 
   20500    310.69836   -10463.722            0   -9538.5152   -14017.802    786.39955    9.2302703    9.2302703    9.2302703    60.205286 
   20600    312.75105   -10469.111            0   -9537.7922   -943.20328    782.73666    9.2159171    9.2159171    9.2159171    57.130921 
   20700    322.02984   -10497.627            0   -9538.6775    9018.7338    779.24968    9.2022115    9.2022115    9.2022115    56.084881 
   20800    302.50198   -10441.684            0   -9540.8852    8130.0968    776.45369    9.1911923    9.1911923    9.1911923    53.995178 
   20900    309.07642   -10469.613            0   -9549.2357    14831.144    774.82183    9.1847488    9.1847488    9.1847488     52.18763 
   21000     298.2444   -10451.802            0   -9563.6811    22051.076    774.51782    9.1835474    9.1835474    9.1835474    66.384163 
Loop time of 17.0552 on 16 procs for 1000 steps with 1000 atoms

Performance: 5.066 ns/day, 4.738 hours/ns, 58.633 timesteps/s
95.0% CPU use with 16 MPI tasks x no OpenMP threads

MPI task timing breakdown:
Section |  min time  |  avg time  |  max time  |%varavg| %total
---------------------------------------------------------------
Pair    | 2.2797     | 2.3861     | 2.6029     |   5.6 | 13.99
Neigh   | 0.76526    | 0.79097    | 0.85759    |   2.9 |  4.64
Comm    | 0.73507    | 1.0183     | 1.1507     |  11.1 |  5.97
Output  | 8.6768     | 8.9388     | 12.818     |  33.5 | 52.41
Modify  | 0.033455   | 3.9129     | 4.1752     |  50.6 | 22.94
Other   |            | 0.008141   |            |       |  0.05

Nlocal:    62.5 ave 65 max 56 min
Histogram: 1 0 0 1 0 3 2 1 5 3
Nghost:    1877.5 ave 1890 max 1861 min
Histogram: 1 2 0 0 5 0 3 1 1 3
Neighs:    0 ave 0 max 0 min
Histogram: 16 0 0 0 0 0 0 0 0 0
FullNghs:  19038.4 ave 19911 max 16861 min
Histogram: 1 0 0 1 0 3 2 1 4 4

Total # of neighbors = 304614
Ave neighs/atom = 304.614
Neighbor list builds = 1000
Dangerous builds not checked
Setting up Verlet run ...
  Unit style    : real
  Current step  : 21000
  Time step     : 1
Per MPI rank memory allocation (min/avg/max) = 4.578 | 4.579 | 4.579 Mbytes
Step Temp E_pair E_mol TotEng Press Volume Lx Ly Lz S/CPU 
   21000     298.2444   -10451.802            0   -9563.6811    22051.076    774.51782    9.1835474    9.1835474    9.1835474            0 
   21100     295.8089   -10463.245            0   -9582.3769    11489.111    775.27024    9.1865203    9.1865203    9.1865203    49.643134 
   21200    308.50339   -10520.068            0   -9601.3978    6036.3032    776.83246    9.1926866    9.1926866    9.1926866     64.02249 
   21300    298.95548   -10504.638            0      -9614.4    6588.6117    778.85114    9.2006424    9.2006424    9.2006424    68.587225 
   21400     283.7712   -10466.274            0   -9621.2522   -14979.761    781.46103     9.210908     9.210908     9.210908    53.086352 
   21500    294.01069   -10501.498            0   -9625.9848   -1466.6546    783.99083    9.2208366    9.2208366    9.2208366    58.217722 
   21600    295.57613    -10506.81            0   -9626.6349   -15327.694    786.09471    9.2290774    9.2290774    9.2290774    46.524207 
   21700     302.2401   -10526.149            0   -9626.1297   -20334.146     787.3961    9.2341676    9.2341676    9.2341676    62.400083 
   21800    299.45037   -10516.313            0   -9624.6006   -9542.1872    788.18498    9.2372504    9.2372504    9.2372504    42.741955 
   21900     300.9619    -10519.04            0   -9622.8268   -11586.027    788.39682    9.2380779    9.2380779    9.2380779    69.135784 
   22000    299.71558   -10514.841            0   -9622.3388    -4437.642     788.4508    9.2382888    9.2382888    9.2382888    53.921938 
Loop time of 18.0283 on 16 procs for 1000 steps with 1000 atoms

Performance: 4.792 ns/day, 5.008 hours/ns, 55.468 timesteps/s
94.9% CPU use with 16 MPI tasks x no OpenMP threads

MPI task timing breakdown:
Section |  min time  |  avg time  |  max time  |%varavg| %total
---------------------------------------------------------------
Pair    | 2.2995     | 2.437      | 2.6665     |   5.7 | 13.52
Neigh   | 0.77421    | 0.80536    | 0.87536    |   2.8 |  4.47
Comm    | 0.72302    | 1.022      | 1.1849     |  11.0 |  5.67
Output  | 9.1939     | 9.4791     | 13.708     |  35.5 | 52.58
Modify  | 0.046278   | 4.2766     | 4.5652     |  52.8 | 23.72
Other   |            | 0.008228   |            |       |  0.05

Nlocal:    62.5 ave 66 max 60 min
Histogram: 1 4 0 3 0 5 1 0 1 1
Nghost:    1851.19 ave 1873 max 1837 min
Histogram: 4 1 1 3 1 1 3 1 0 1
Neighs:    0 ave 0 max 0 min
Histogram: 16 0 0 0 0 0 0 0 0 0
FullNghs:  18716.1 ave 19893 max 17833 min
Histogram: 1 0 4 3 3 2 0 2 0 1

Total # of neighbors = 299458
Ave neighs/atom = 299.458
Neighbor list builds = 1000
Dangerous builds not checked
Setting up Verlet run ...
  Unit style    : real
  Current step  : 22000
  Time step     : 1
Per MPI rank memory allocation (min/avg/max) = 4.578 | 4.579 | 4.579 Mbytes
Step Temp E_pair E_mol TotEng Press Volume Lx Ly Lz S/CPU 
   22000    299.71558   -10514.841            0   -9622.3388    -4437.642     788.4508    9.2382888    9.2382888    9.2382888            0 
   22100    290.72724   -10484.575            0   -9618.8393   -12131.689    788.54781    9.2386676    9.2386676    9.2386676    58.140432 
   22200    306.71172   -10529.637            0   -9616.3018   -7968.3373    788.07111    9.2368056    9.2368056    9.2368056    57.861261 
   22300     304.8587   -10519.653            0   -9611.8357    5044.5791    786.57609     9.230961     9.230961     9.230961    57.819827 
   22400    303.80676   -10512.592            0   -9607.9075   -867.10103    784.47088    9.2227183    9.2227183    9.2227183    60.203893 
   22500    315.19162   -10542.105            0   -9603.5186     1399.604    781.91555    9.2126934    9.2126934    9.2126934      48.6971 
   22600    307.86337   -10514.245            0   -9597.4801    9884.8993    779.30183    9.2024168    9.2024168    9.2024168    61.019438 
   22700    301.85513   -10490.624            0   -9591.7507    21234.749    776.89504    9.1929335    9.1929335    9.1929335    40.598924 
   22800    304.74528   -10495.321            0   -9587.8418    2991.5277    774.84597    9.1848442    9.1848442    9.1848442    46.926996 
   22900    307.04108   -10496.522            0   -9582.2059    17814.855    773.45215    9.1793335    9.1793335    9.1793335    55.829301 
   23000    294.27498   -10452.398            0   -9576.0972    12412.538    773.09552    9.1779225    9.1779225    9.1779225     62.75563 
Loop time of 18.5099 on 16 procs for 1000 steps with 1000 atoms

Performance: 4.668 ns/day, 5.142 hours/ns, 54.025 timesteps/s
94.9% CPU use with 16 MPI tasks x no OpenMP threads

MPI task timing breakdown:
Section |  min time  |  avg time  |  max time  |%varavg| %total
---------------------------------------------------------------
Pair    | 2.2816     | 2.4267     | 2.6554     |   5.6 | 13.11
Neigh   | 0.76491    | 0.80021    | 0.86207    |   2.6 |  4.32
Comm    | 0.73203    | 1.0219     | 1.2024     |  10.8 |  5.52
Output  | 9.8634     | 10.141     | 14.204     |  32.9 | 54.79
Modify  | 0.048091   | 4.1119     | 4.3896     |  51.7 | 22.21
Other   |            | 0.008215   |            |       |  0.04

Nlocal:    62.5 ave 67 max 55 min
Histogram: 1 0 1 1 0 4 2 4 0 3
Nghost:    1883.44 ave 1906 max 1853 min
Histogram: 1 0 3 1 0 3 3 2 1 2
Neighs:    0 ave 0 max 0 min
Histogram: 16 0 0 0 0 0 0 0 0 0
FullNghs:  19078.2 ave 20545 max 16490 min
Histogram: 1 0 1 1 1 2 1 5 1 3

Total # of neighbors = 305252
Ave neighs/atom = 305.252
Neighbor list builds = 1000
Dangerous builds not checked
Setting up Verlet run ...
  Unit style    : real
  Current step  : 23000
  Time step     : 1
Per MPI rank memory allocation (min/avg/max) = 4.578 | 4.579 | 4.579 Mbytes
Step Temp E_pair E_mol TotEng Press Volume Lx Ly Lz S/CPU 
   23000    294.27498   -10452.398            0   -9576.0972    12412.538    773.09552    9.1779225    9.1779225    9.1779225            0 
   23100    292.15748   -10439.287            0   -9569.2915    2585.0055    773.48086    9.1794471    9.1794471    9.1794471     47.89723 
   23200     307.2346    -10476.75            0   -9561.8575   -3821.7747    774.40351    9.1830956    9.1830956    9.1830956    51.562599 
   23300    306.97638   -10468.589            0   -9554.4656    16475.858    775.93662    9.1891516    9.1891516    9.1891516    73.502787 
   23400    310.58819   -10472.165            0   -9547.2867    -4573.158    777.98481    9.1972298    9.1972298    9.1972298     73.63729 
   23500    318.17962   -10488.519            0   -9541.0347   -3301.5669    780.22167     9.206036     9.206036     9.206036    83.338709 
   23600     306.1322   -10448.028            0   -9536.4188    13910.784    782.43896    9.2147485    9.2147485    9.2147485    71.430223 
   23700    304.64236   -10440.252            0   -9533.0789    8831.5806    785.22345    9.2256666    9.2256666    9.2256666    76.320405 
   23800    309.94971   -10455.549            0   -9532.5722   -3852.3981    788.37858    9.2380067    9.2380067    9.2380067     80.20762 
   23900    297.57462   -10417.083            0   -9530.9562   -25053.109     791.5107    9.2502243    9.2502243    9.2502243    64.843809 
   24000    296.93747   -10415.182            0   -9530.9531   -8138.0064    793.82383    9.2592266    9.2592266    9.2592266    74.916725 
Loop time of 14.7796 on 16 procs for 1000 steps with 1000 atoms

Performance: 5.846 ns/day, 4.105 hours/ns, 67.661 timesteps/s
95.2% CPU use with 16 MPI tasks x no OpenMP threads

MPI task timing breakdown:
Section |  min time  |  avg time  |  max time  |%varavg| %total
---------------------------------------------------------------
Pair    | 2.2884     | 2.443      | 2.6177     |   6.3 | 16.53
Neigh   | 0.7714     | 0.80424    | 0.85132    |   3.0 |  5.44
Comm    | 0.80377    | 1.0121     | 1.2005     |  12.4 |  6.85
Output  | 6.9671     | 7.1883     | 10.457     |  31.5 | 48.64
Modify  | 0.0538     | 3.3236     | 3.549      |  46.3 | 22.49
Other   |            | 0.00826    |            |       |  0.06

Nlocal:    62.5 ave 68 max 55 min
Histogram: 2 0 0 2 0 3 4 3 0 2
Nghost:    1836.31 ave 1869 max 1816 min
Histogram: 3 1 3 1 3 2 1 1 0 1
Neighs:    0 ave 0 max 0 min
Histogram: 16 0 0 0 0 0 0 0 0 0
FullNghs:  18601.4 ave 20551 max 16420 min
Histogram: 2 0 1 1 1 4 3 2 1 1

Total # of neighbors = 297622
Ave neighs/atom = 297.622
Neighbor list builds = 1000
Dangerous builds not checked
Setting up Verlet run ...
  Unit style    : real
  Current step  : 24000
  Time step     : 1
Per MPI rank memory allocation (min/avg/max) = 4.578 | 4.579 | 4.579 Mbytes
Step Temp E_pair E_mol TotEng Press Volume Lx Ly Lz S/CPU 
   24000    296.93747   -10415.182            0   -9530.9531   -8138.0064    793.82383    9.2592266    9.2592266    9.2592266            0 
   24100    292.34753   -10404.355            0    -9533.794   -11439.895      795.547    9.2659214    9.2659214    9.2659214    72.240782 
   24200    303.51586   -10443.599            0   -9539.7804   -8055.9527     797.0414    9.2717197    9.2717197    9.2717197    61.242468 
   24300    300.08325   -10440.621            0    -9547.024   -15758.924    797.77033    9.2745453    9.2745453    9.2745453    79.521786 
   24400    293.44871   -10430.331            0   -9556.4909   -17597.842    797.59557     9.273868     9.273868     9.273868     74.92676 
   24500    298.78712   -10458.426            0   -9568.6889   -23708.757    796.47857    9.2695368    9.2695368    9.2695368    64.975872 
   24600    300.28079   -10473.584            0   -9579.3993   -14148.931    793.90083    9.2595259    9.2595259    9.2595259    74.390439 
   24700    309.55771   -10514.637            0    -9592.827    717.57857    789.84991      9.24375      9.24375      9.24375    66.149638 
   24800    299.16548   -10492.625            0   -9601.7616    17581.628    784.86053     9.224245     9.224245     9.224245    73.082131 
   24900    299.03453   -10499.201            0   -9608.7276    15081.258    780.16735    9.2058224    9.2058224    9.2058224    81.446272 
   25000    306.99833   -10530.083            0   -9615.8946    18410.049    776.45248    9.1911875    9.1911875    9.1911875    65.205933 
Loop time of 14.134 on 16 procs for 1000 steps with 1000 atoms

Performance: 6.113 ns/day, 3.926 hours/ns, 70.751 timesteps/s
95.2% CPU use with 16 MPI tasks x no OpenMP threads

MPI task timing breakdown:
Section |  min time  |  avg time  |  max time  |%varavg| %total
---------------------------------------------------------------
Pair    | 2.2688     | 2.3683     | 2.4778     |   4.0 | 16.76
Neigh   | 0.76968    | 0.80002    | 0.83247    |   1.9 |  5.66
Comm    | 0.84423    | 0.98561    | 1.1155     |   7.6 |  6.97
Output  | 6.5058     | 6.7225     | 9.9232     |  31.9 | 47.56
Modify  | 0.048569   | 3.2495     | 3.4665     |  45.8 | 22.99
Other   |            | 0.008146   |            |       |  0.06

Nlocal:    62.5 ave 70 max 57 min
Histogram: 1 0 2 6 3 2 0 1 0 1
Nghost:    1869.06 ave 1887 max 1859 min
Histogram: 3 3 2 1 3 1 0 1 0 2
Neighs:    0 ave 0 max 0 min
Histogram: 16 0 0 0 0 0 0 0 0 0
FullNghs:  19020.8 ave 21345 max 17395 min
Histogram: 1 2 3 3 3 2 0 1 0 1

Total # of neighbors = 304332
Ave neighs/atom = 304.332
Neighbor list builds = 1000
Dangerous builds not checked
Setting up Verlet run ...
  Unit style    : real
  Current step  : 25000
  Time step     : 1
Per MPI rank memory allocation (min/avg/max) = 4.578 | 4.579 | 4.579 Mbytes
Step Temp E_pair E_mol TotEng Press Volume Lx Ly Lz S/CPU 
   25000    306.99833   -10530.083            0   -9615.8946    18410.049    776.45248    9.1911875    9.1911875    9.1911875            0 
   25100    303.42791   -10525.655            0   -9622.0983    34551.963    774.03211    9.1816273    9.1816273    9.1816273    63.155319 
   25200    308.37508   -10547.082            0    -9628.794    21673.411    773.33132    9.1788555    9.1788555    9.1788555    73.831202 
   25300    308.37182   -10554.878            0   -9636.5998    8867.7509     774.3271    9.1827935    9.1827935    9.1827935    67.795962 
   25400    312.52187   -10574.494            0   -9643.8574    10266.944    776.75705    9.1923891    9.1923891    9.1923891    59.821209 
   25500    301.99743   -10550.127            0     -9650.83    11171.443    780.38724    9.2066872    9.2066872    9.2066872    42.533741 
   25600    297.71944   -10541.929            0   -9655.3711    4728.7471    784.91289    9.2244501    9.2244501    9.2244501    57.014035 
   25700    289.27668   -10519.224            0   -9657.8071   -24712.803    789.59146    9.2427416    9.2427416    9.2427416    62.594821 
   25800    298.57533   -10546.789            0   -9657.6823   -26530.063    793.04914    9.2562136    9.2562136    9.2562136    52.414374 
   25900    300.46409   -10551.443            0   -9656.7121   -20643.434     795.0028    9.2638082    9.2638082    9.2638082    72.584735 
   26000    300.63947   -10550.117            0    -9654.864   -18302.169    795.37247    9.2652438    9.2652438    9.2652438     54.29135 
Loop time of 16.9146 on 16 procs for 1000 steps with 1000 atoms

Performance: 5.108 ns/day, 4.699 hours/ns, 59.120 timesteps/s
95.0% CPU use with 16 MPI tasks x no OpenMP threads

MPI task timing breakdown:
Section |  min time  |  avg time  |  max time  |%varavg| %total
---------------------------------------------------------------
Pair    | 2.3723     | 2.4628     | 2.5782     |   3.5 | 14.56
Neigh   | 0.77923    | 0.81264    | 0.86777    |   2.3 |  4.80
Comm    | 0.80236    | 0.97496    | 1.0994     |   7.5 |  5.76
Output  | 7.7484     | 8.0532     | 12.575     |  41.1 | 47.61
Modify  | 0.082836   | 4.6027     | 4.9077     |  54.4 | 27.21
Other   |            | 0.008332   |            |       |  0.05

Nlocal:    62.5 ave 71 max 54 min
Histogram: 1 0 1 2 4 5 0 2 0 1
Nghost:    1853.38 ave 1869 max 1842 min
Histogram: 4 1 2 0 3 0 1 3 1 1
Neighs:    0 ave 0 max 0 min
Histogram: 16 0 0 0 0 0 0 0 0 0
FullNghs:  18537.5 ave 21327 max 15977 min
Histogram: 1 1 0 4 3 4 1 1 0 1

Total # of neighbors = 296600
Ave neighs/atom = 296.6
Neighbor list builds = 1000
Dangerous builds not checked
Setting up Verlet run ...
  Unit style    : real
  Current step  : 26000
  Time step     : 1
Per MPI rank memory allocation (min/avg/max) = 4.578 | 4.579 | 4.579 Mbytes
Step Temp E_pair E_mol TotEng Press Volume Lx Ly Lz S/CPU 
   26000    300.63947   -10550.117            0    -9654.864   -18302.169    795.37247    9.2652438    9.2652438    9.2652438            0 
   26100    288.07198    -10510.09            0   -9652.2604   -19727.717    794.04858    9.2601003    9.2601003    9.2601003    77.370587 
   26200    291.07937   -10514.206            0   -9647.4214   -2511.4496    791.30949    9.2494404    9.2494404    9.2494404    80.827141 
   26300    289.45571   -10501.766            0   -9639.8162   -11538.657    787.56731    9.2348368    9.2348368    9.2348368     64.90033 
   26400    301.78808   -10529.892            0   -9631.2187     16174.79    783.07074     9.217228     9.217228     9.217228    79.002266 
   26500    297.71043   -10506.023            0    -9619.492    5041.3092    778.72983    9.2001647    9.2001647    9.2001647    83.370349 
   26600    314.92065   -10548.316            0   -9610.5365    26313.297    774.73703    9.1844137    9.1844137    9.1844137    57.579159 
   26700    304.69899   -10508.654            0   -9601.3128    12684.439    772.28507    9.1747142    9.1747142    9.1747142    68.086265 
   26800    312.43946   -10527.567            0   -9597.1759    15978.691     771.3631    9.1710618    9.1710618    9.1710618    67.452183 
   26900    308.09049   -10512.701            0   -9595.2599      12739.6    771.76897      9.17267      9.17267      9.17267    66.362678 
   27000     311.4569   -10523.245            0     -9595.78    13647.465     773.5935    9.1798927    9.1798927    9.1798927    81.616318 
Loop time of 13.9559 on 16 procs for 1000 steps with 1000 atoms

Performance: 6.191 ns/day, 3.877 hours/ns, 71.654 timesteps/s
95.3% CPU use with 16 MPI tasks x no OpenMP threads

MPI task timing breakdown:
Section |  min time  |  avg time  |  max time  |%varavg| %total
---------------------------------------------------------------
Pair    | 2.3262     | 2.4891     | 2.6276     |   4.6 | 17.84
Neigh   | 0.78218    | 0.8205     | 0.87888    |   2.6 |  5.88
Comm    | 0.77152    | 0.96842    | 1.1642     |   9.5 |  6.94
Output  | 6.4499     | 6.6519     | 9.6304     |  29.8 | 47.66
Modify  | 0.038917   | 3.0176     | 3.2196     |  44.3 | 21.62
Other   |            | 0.008312   |            |       |  0.06

Nlocal:    62.5 ave 67 max 59 min
Histogram: 3 2 2 1 0 1 3 2 0 2
Nghost:    1876.81 ave 1889 max 1859 min
Histogram: 1 1 2 1 1 0 2 3 2 3
Neighs:    0 ave 0 max 0 min
Histogram: 16 0 0 0 0 0 0 0 0 0
FullNghs:  19089.9 ave 20683 max 17718 min
Histogram: 2 2 1 2 1 3 1 2 0 2

Total # of neighbors = 305438
Ave neighs/atom = 305.438
Neighbor list builds = 1000
Dangerous builds not checked
Setting up Verlet run ...
  Unit style    : real
  Current step  : 27000
  Time step     : 1
Per MPI rank memory allocation (min/avg/max) = 4.578 | 4.579 | 4.579 Mbytes
Step Temp E_pair E_mol TotEng Press Volume Lx Ly Lz S/CPU 
   27000     311.4569   -10523.245            0     -9595.78    13647.465     773.5935    9.1798927    9.1798927    9.1798927            0 
   27100    311.25409   -10523.123            0   -9596.2613    10435.235    776.80103    9.1925626    9.1925626    9.1925626    62.283803 
   27200    310.38035    -10523.95            0   -9599.6905    6946.1914    781.18738    9.2098327    9.2098327    9.2098327     51.02565 
   27300    302.89379   -10503.827            0   -9601.8614    8883.6792    786.44616    9.2304526    9.2304526    9.2304526    81.040643 
   27400    305.20102   -10513.177            0   -9604.3407    6703.3067    792.00208    9.2521381    9.2521381    9.2521381    65.478097 
   27500    311.27702   -10534.478            0    -9607.548    -14886.28    797.43231    9.2732352    9.2732352    9.2732352    70.775118 
   27600    311.68055   -10538.117            0   -9609.9855   -23222.308    802.05057    9.2911025    9.2911025    9.2911025    90.951899 
   27700    312.74051   -10542.748            0   -9611.4598   -18770.992    805.21278     9.303297     9.303297     9.303297     70.98794 
   27800    292.96364   -10484.726            0   -9612.3299   -23022.235    806.60344    9.3086497    9.3086497    9.3086497    65.014873 
   27900     294.3648   -10490.996            0   -9614.4281   -31638.111    806.26415    9.3073444    9.3073444    9.3073444    57.224922 
   28000    293.25229   -10488.356            0    -9615.101   -20932.971     804.1114    9.2990534    9.2990534    9.2990534    61.242586 
Loop time of 15.1661 on 16 procs for 1000 steps with 1000 atoms

[...]
 1288700    306.06657   -11345.899            0   -10434.485     4547.517    727.82207    8.9951499    8.9951499    8.9951499    67.907006 
 1288800    299.68706   -11317.671            0   -10425.254    3068.2037    726.59164    8.9900781    8.9900781    8.9900781    88.629249 
 1288900    300.23079   -11310.479            0   -10416.443     29118.11    726.19304    8.9884339    8.9884339    8.9884339    54.747688 
 1289000     311.1805   -11335.128            0   -10408.486    14388.652    726.96975    8.9916373    8.9916373    8.9916373    59.181388 
 1289100     305.9604   -11311.486            0   -10400.388    7437.5346     728.5456    8.9981297    8.9981297    8.9981297    49.751556 
 1289200    311.77408   -11318.737            0   -10390.327   -9854.8937    730.72531    9.0070944    9.0070944    9.0070944    59.114818 
 1289300    302.93579   -11283.473            0   -10381.382    2450.0708    732.55662    9.0146126    9.0146126    9.0146126     47.65988 
 1289400    309.67238   -11294.734            0   -10372.583   -6406.2033    733.78119    9.0196328    9.0196328    9.0196328    65.765235 
 1289500    315.87362   -11304.139            0   -10363.521     -24742.5    734.39674    9.0221542    9.0221542    9.0221542    42.476971 
 1289600    308.63668   -11273.391            0   -10354.323   -26788.151    733.99327    9.0205017    9.0205017    9.0205017    59.695481 
 1289700    311.18282   -11273.635            0   -10346.986   -13623.708    732.16387    9.0130012    9.0130012    9.0130012    49.852657 
 1289800    316.71444   -11284.838            0   -10341.716   -4508.7642     729.5322    9.0021896    9.0021896    9.0021896    61.702476 
 1289900    318.82858   -11286.046            0   -10336.629    18483.039    726.89927    8.9913467    8.9913467    8.9913467    52.003061 
 1290000    322.21728   -11295.136            0   -10335.628    13564.441    724.92146    8.9831845    8.9831845    8.9831845    60.311096 
 1290100    304.95794   -11245.633            0   -10337.521    23341.548    723.61681    8.9777922    8.9777922    8.9777922    46.265246 
 1290200    310.70192   -11272.224            0   -10347.006    37706.795    723.66298    8.9779832    8.9779832    8.9779832    65.986862 
 1290300    311.68425   -11292.026            0   -10363.883    21427.334    725.41525    8.9852237    8.9852237    8.9852237     44.40758 
 1290400    306.44561   -11295.135            0   -10382.592     9858.056    728.17079    8.9965863    8.9965863    8.9965863    57.648971 
 1290500    296.06513   -11281.452            0   -10399.821    -7197.865    731.33727    9.0096081    9.0096081    9.0096081    53.338375 
 1290600    294.76751   -11289.027            0   -10411.259   -28546.659    734.11954    9.0210189    9.0210189    9.0210189    66.681348 
 1290700     295.1834   -11299.015            0   -10420.009   -25965.427    735.48926    9.0266259    9.0266259    9.0266259    49.723637 
 1290800    297.63512   -11314.246            0    -10427.94   -28063.829    735.28796    9.0258023    9.0258023    9.0258023    58.637823 
 1290900    311.58265   -11363.277            0   -10435.437   -16612.612     733.2293     9.017371     9.017371     9.017371    52.025023 
 1291000    295.64732   -11321.436            0   -10441.049   -10422.313    729.95173    9.0039149    9.0039149    9.0039149    49.567989 
 1291100    289.72909     -11307.6            0   -10444.836    22504.264    726.18967      8.98842      8.98842      8.98842    58.138163 
 1291200    297.01012   -11333.731            0   -10449.286    28339.708    723.11387    8.9757118    8.9757118    8.9757118    66.960421 
 1291300     306.6218   -11369.539            0   -10456.472     24722.65    721.24911    8.9679896    8.9679896    8.9679896     59.88382 
 1291400    302.45606   -11362.735            0   -10462.072    14300.441    720.88939    8.9664984    8.9664984    8.9664984    73.018545 
 1291500    302.28395   -11366.468            0   -10466.318    30918.547    721.84158    8.9704445    8.9704445    8.9704445    60.377871 
 1291600    299.54966   -11363.585            0   -10471.577    11512.674    724.17421    8.9800968    8.9800968    8.9800968    78.827543 
 1291700    307.53071   -11392.987            0   -10477.213    1462.7436    727.14451    8.9923577    8.9923577    8.9923577    83.346306 
 1291800    299.90387   -11373.347            0   -10480.284   -19302.645    730.02882    9.0042318    9.0042318    9.0042318    61.863127 
 1291900    304.27859    -11389.51            0   -10483.421   -22941.749    732.02265    9.0124217    9.0124217    9.0124217    77.331204 
 1292000    298.80471   -11376.074            0   -10486.285   -22891.363    732.67286    9.0150893    9.0150893    9.0150893    78.933234 
 1292100    309.18763   -11409.628            0    -10488.92   -18145.791    731.74246    9.0112717    9.0112717    9.0112717    60.686271 
 1292200     292.2642   -11359.268            0   -10488.955   -13522.685    729.53965    9.0022202    9.0022202    9.0022202    70.488485 
 1292300    293.10007   -11362.209            0   -10489.407   -5083.9203    726.58949    8.9900693    8.9900693    8.9900693    86.950136 
 1292400    291.69806   -11356.351            0   -10487.724    14367.065    723.88089    8.9788842    8.9788842    8.9788842    55.323318 
 1292500    298.48206   -11372.709            0    -10483.88    21507.942    721.87121    8.9705673    8.9705673    8.9705673    76.673426 
 1292600    293.18966   -11350.516            0   -10477.447    19944.021    720.88875    8.9664958    8.9664958    8.9664958    54.133491 
 1292700    304.25785   -11377.034            0   -10471.006    16475.624    721.12147    8.9674605    8.9674605    8.9674605    84.871826 
 1292800    299.53169   -11354.876            0   -10462.921    24321.641    722.63946    8.9737485    8.9737485    8.9737485    93.816248 
 1292900    311.39986   -11380.842            0   -10453.547    11613.138    725.11716    8.9839928    8.9839928    8.9839928    85.043476 
 1293000    294.62091       -11318            0   -10440.669   -1404.8974    727.95037    8.9956784    8.9956784    8.9956784    62.605809 
 1293100    310.31655   -11354.872            0   -10430.802   -15042.765    730.58767    9.0065289    9.0065289    9.0065289     78.12143 
 1293200    308.20025   -11338.775            0   -10421.008   -18998.078    732.59568    9.0147728    9.0147728    9.0147728    68.466115 
 1293300    306.70324    -11325.44            0    -10412.13   -12625.438    733.49236    9.0184493    9.0184493    9.0184493    52.438032 
 1293400     304.1974    -11311.97            0   -10406.122    -19591.01     733.3258    9.0177666    9.0177666    9.0177666    56.726549 
 1293500    300.13397   -11293.742            0   -10399.994   -19840.822    732.19579    9.0131322    9.0131322    9.0131322    47.390259 
 1293600     305.5291   -11307.466            0   -10397.653    1086.1435     730.2054    9.0049578    9.0049578    9.0049578    59.899595 
 1293700    308.46573   -11312.832            0   -10394.273    4108.0398    728.08354     8.996227     8.996227     8.996227    64.308019 
 1293800    304.05255    -11299.77            0   -10394.353    4981.7895    726.19441    8.9884395    8.9884395    8.9884395     78.91264 
 1293900    300.48299   -11290.257            0    -10395.47    10701.028    724.84634    8.9828742    8.9828742    8.9828742    69.298164 
 1294000    300.60871   -11292.793            0   -10397.631    18109.212    724.45023    8.9812376    8.9812376    8.9812376    70.881504 
 1294100    311.41738   -11331.522            0   -10404.175    2501.3382    725.14728    8.9841172    8.9841172    8.9841172     74.06435 
 1294200    294.25076   -11286.193            0   -10409.965    7569.2841    726.49426    8.9896765    8.9896765    8.9896765    54.576379 
 1294300    309.84508   -11343.253            0   -10420.588   -1432.2429    728.06387     8.996146     8.996146     8.996146    78.124859 
 1294400    307.17786   -11346.942            0   -10432.218   -13999.775    729.38065    9.0015662    9.0015662    9.0015662    74.352036 
 1294500     304.2387   -11350.782            0   -10444.811    -15108.44     730.1963    9.0049204    9.0049204    9.0049204    59.533535 
 1294600     299.1272   -11349.799            0   -10459.049   -13810.667    730.02901    9.0042326    9.0042326    9.0042326     84.72831 
 1294700    303.12242   -11373.749            0   -10471.102   -3230.7657    729.19546    9.0008043    9.0008043    9.0008043    61.117456 
 1294800    285.06698   -11326.323            0   -10477.443   -13330.561    728.13521    8.9964398    8.9964398    8.9964398    52.389455 
 1294900    289.48765   -11342.987            0   -10480.942    4854.8749    726.78738    8.9908853    8.9908853    8.9908853    76.033766 
 1295000     304.1839   -11389.531            0   -10483.723   -8899.6043    725.46778    8.9854406    8.9854406    8.9854406    83.576057 
 1295100    290.85258   -11348.752            0   -10482.642    11503.979    724.24604    8.9803937    8.9803937    8.9803937    54.633129 
 1295200    292.08712   -11351.753            0   -10481.967     6502.247    723.50587    8.9773334    8.9773334    8.9773334    68.434769 
 1295300    296.77983   -11364.934            0   -10481.174    3660.4217    723.16097    8.9759066    8.9759066    8.9759066    69.631272 
 1295400    289.31208   -11341.374            0   -10479.852    15041.205    723.41956    8.9769764    8.9769764    8.9769764    54.897479 
 1295500    290.31007   -11343.692            0   -10479.199    6714.7714    724.35801    8.9808565    8.9808565    8.9808565    79.112421 
 1295600    292.14063   -11346.965            0    -10477.02    4758.2665    725.64001    8.9861516    8.9861516    8.9861516    67.455886 
 1295700     293.4991   -11348.703            0   -10474.712   -2816.7446    727.08731     8.992122     8.992122     8.992122    52.645229 
 1295800     287.5365   -11327.007            0   -10470.773    925.72053    728.38872    8.9974838    8.9974838    8.9974838    48.917044 
 1295900    294.12954   -11341.625            0   -10465.758   -12277.818    729.40755    9.0016768    9.0016768    9.0016768    65.519063 
 1296000    298.90662    -11352.41            0   -10462.317    -1557.364    729.90052    9.0037043    9.0037043    9.0037043    73.169058 
 1296100    294.05132   -11329.941            0   -10454.306    5125.6484    729.67569    9.0027798    9.0027798    9.0027798    61.096207 
 1296200    302.13047    -11346.15            0   -10446.457    1365.5373     728.6203    8.9984372    8.9984372    8.9984372    78.616127 
 1296300     311.6563   -11366.905            0   -10438.846   -249.80651     727.0675    8.9920403    8.9920403    8.9920403     69.45929 
 1296400    298.07685   -11318.601            0   -10430.979    16204.705    725.63137    8.9861159    8.9861159    8.9861159    70.822674 
 1296500    305.96889   -11334.994            0   -10423.871    10262.344    724.92583    8.9832025    8.9832025    8.9832025    60.464077 
 1296600    304.75043   -11328.079            0   -10420.584    29769.911    724.79704    8.9826705    8.9826705    8.9826705    56.899393 
 1296700    310.23586   -11342.233            0   -10418.403    17545.228    725.49607    8.9855574    8.9855574    8.9855574    80.398695 
 1296800    306.33167   -11331.139            0   -10418.935    9817.0358    726.95051     8.991558     8.991558     8.991558    80.414013 
 1296900    303.42259   -11324.329            0   -10420.789   -1789.4912    728.82893     8.999296     8.999296     8.999296    58.219292 
 1297000    297.32232   -11310.602            0   -10425.227   -5076.7785    730.55331    9.0063877    9.0063877    9.0063877    78.880252 
 1297100    305.93883   -11343.777            0   -10432.744   -7251.3917    731.66604     9.010958     9.010958     9.010958    69.825749 
 1297200    297.41881   -11331.068            0   -10445.406   -19937.439    731.90711    9.0119475    9.0119475    9.0119475    69.191732 
 1297300    286.21624   -11313.554            0   -10461.251   -7506.6868    731.18518    9.0089835    9.0089835    9.0089835    75.564187 
 1297400    293.41665   -11352.498            0   -10478.754   -11397.887    729.61312    9.0025224    9.0025224    9.0025224    80.924577 
 1297500    296.63553   -11374.376            0   -10491.046   -6820.3479    727.50213    8.9938317    8.9938317    8.9938317    61.934191 
 1297600    294.46247   -11377.436            0   -10500.577   -6062.8073    724.89546    8.9830771    8.9830771    8.9830771    93.986689 
 1297700    289.22162    -11366.33            0   -10505.077    12570.569     722.3652    8.9726131    8.9726131    8.9726131    76.631803 
 1297800    289.09332   -11368.485            0   -10507.614    16882.774    720.74452    8.9658978    8.9658978    8.9658978    58.224388 
 1297900    294.73951   -11385.569            0   -10507.885    24717.861    720.55481     8.965111     8.965111     8.965111    78.474845 
 1298000     307.5625    -11424.58            0   -10508.711    17479.514    721.72582     8.969965     8.969965     8.969965    74.603154 
 1298100    293.91849   -11381.678            0   -10506.439    541.28457    723.87344    8.9788534    8.9788534    8.9788534    56.700235 
 1298200    295.42234   -11382.516            0   -10502.798    3020.5068    726.44896    8.9894896    8.9894896    8.9894896    63.465331 
 1298300    301.49653   -11396.321            0   -10498.515   -3352.2693     729.0388    9.0001597    9.0001597    9.0001597    46.993185 
 1298400    300.10448   -11384.968            0   -10491.308   -11051.403    731.11191    9.0086826    9.0086826    9.0086826    51.015376 
 1298500    291.76513   -11351.418            0   -10482.591   -21171.195    732.24277     9.013325     9.013325     9.013325    63.888286 
 1298600     289.8892   -11337.009            0   -10473.769   -23739.812    731.89549    9.0118998    9.0118998    9.0118998    48.236005 
 1298700     306.2252   -11376.758            0   -10464.872   -25765.199    730.31005    9.0053879    9.0053879    9.0053879    61.821664 
 1298800     306.4253   -11368.409            0   -10455.927    4143.2118    727.96308    8.9957308    8.9957308    8.9957308     52.44012 
 1298900    309.40376    -11369.81            0   -10448.459    7258.2121    725.55197    8.9857881    8.9857881    8.9857881    56.797603 
 1299000    295.25002   -11318.797            0   -10439.593    17129.632    723.59615    8.9777068    8.9777068    8.9777068    52.570791 
 1299100    306.04671   -11347.331            0   -10435.976    28734.261     722.8022     8.974422     8.974422     8.974422     57.56705 
 1299200     299.1347   -11322.801            0   -10432.029     12215.76    723.35157    8.9766951    8.9766951    8.9766951    51.674543 
 1299300      311.411   -11361.081            0   -10433.752    9315.6698    725.02541    8.9836139    8.9836139    8.9836139     54.80888 
 1299400    305.36489   -11341.872            0   -10432.547     342.8544    727.45775    8.9936488    8.9936488    8.9936488    46.620187 
 1299500    300.51851   -11327.992            0   -10433.099   -16312.484    729.76606    9.0031514    9.0031514    9.0031514    46.683569 
 1299600    306.10348   -11346.215            0   -10434.691   -23045.537    731.07267    9.0085215    9.0085215    9.0085215    53.010103 
 1299700    303.90184    -11340.66            0   -10435.692   -14727.503    731.29645    9.0094405    9.0094405    9.0094405     55.51641 
 1299800     301.6681   -11334.161            0   -10435.845   -10889.343     730.6817    9.0069152    9.0069152    9.0069152    52.554705 
 1299900    302.90196   -11338.784            0   -10436.794   -18744.995    729.41251    9.0016973    9.0016973    9.0016973     50.74839 
 1300000    291.91641   -11308.855            0   -10439.578    -1402.707    727.34517    8.9931848    8.9931848    8.9931848    57.163594 
 1300100    303.69418    -11346.08            0   -10441.731    17823.712    725.25207    8.9845499    8.9845499    8.9845499    50.242503 
 1300200     302.4992    -11344.97            0   -10444.179    5561.0354    724.06804    8.9796579    8.9796579    8.9796579    60.414618 
 1300300    299.63713    -11339.83            0   -10447.562    17896.075    723.72839    8.9782536    8.9782536    8.9782536    59.489012 
 1300400    301.22904   -11348.759            0   -10451.751    2556.7534    723.99669     8.979363     8.979363     8.979363    60.508067 
 1300500     302.5352   -11355.823            0   -10454.925     18650.79    724.46251    8.9812883    8.9812883    8.9812883    59.053554 
 1300600    300.65867    -11356.89            0    -10461.58    8136.8268    725.24925    8.9845383    8.9845383    8.9845383    56.742678 
 1300700    292.39708    -11340.22            0   -10469.511    4650.6708    726.18675    8.9884079    8.9884079    8.9884079    53.036798 
 1300800     296.3587   -11360.747            0   -10478.241   -76.046494    727.21712    8.9926571    8.9926571    8.9926571    53.244625 
 1300900    290.58514   -11353.739            0   -10488.426   -5357.7165    728.19631    8.9966914    8.9966914    8.9966914    48.676972 
 1301000    289.82954   -11363.947            0   -10500.884   -18091.043     728.5897    8.9983112    8.9983112    8.9983112    62.553383 
 1301100    282.51732   -11356.629            0   -10515.341    -2813.994    728.27333    8.9970086    8.9970086    8.9970086    45.913738 
 1301200    283.22812    -11373.94            0   -10530.535    560.94545    727.34676    8.9931914    8.9931914    8.9931914    60.360979 
 1301300    281.10612   -11378.395            0   -10541.309    2202.9851    725.92783    8.9873395    8.9873395    8.9873395    49.258373 
 1301400    289.71269   -11412.012            0   -10549.297     3100.522    724.44836    8.9812299    8.9812299    8.9812299    63.415856 
 1301500    286.04998   -11403.735            0   -10551.927    12900.866    723.08662     8.975599     8.975599     8.975599     46.48345 
 1301600    302.20695   -11455.279            0   -10555.359    5010.4436    721.95872    8.9709298    8.9709298    8.9709298    62.999409 
 1301700    292.63966   -11425.105            0   -10553.674    26877.889    721.34065     8.968369     8.968369     8.968369    49.658214 
 1301800    299.61414   -11443.529            0   -10551.329    21055.005    721.53669    8.9691814    8.9691814    8.9691814    58.140082 
 1301900    285.85574   -11398.356            0   -10547.126    8147.5987    722.60261    8.9735959    8.9735959    8.9735959    50.026377 
 1302000    289.66379   -11405.924            0   -10543.354    8462.4661    724.08072    8.9797104    8.9797104    8.9797104    54.633674 
Loop time of 1757.22 on 16 procs for 100000 steps with 1000 atoms

Performance: 4.917 ns/day, 4.881 hours/ns, 56.908 timesteps/s
95.0% CPU use with 16 MPI tasks x no OpenMP threads

MPI task timing breakdown:
Section |  min time  |  avg time  |  max time  |%varavg| %total
---------------------------------------------------------------
Pair    | 228.26     | 248.91     | 265.67     |  68.6 | 14.16
Neigh   | 77.571     | 82.858     | 90.929     |  37.6 |  4.72
Comm    | 80.491     | 105.32     | 130.46     | 135.5 |  5.99
Output  | 873.25     | 901.09     | 1313.5     | 354.7 | 51.28
Modify  | 5.7881     | 418.19     | 446.03     | 520.7 | 23.80
Other   |            | 0.8428     |            |       |  0.05

Nlocal:    62.5 ave 70 max 56 min
Histogram: 1 2 3 0 3 2 2 1 0 2
Nghost:    1953.31 ave 1981 max 1934 min
Histogram: 2 1 5 1 0 4 1 0 1 1
Neighs:    0 ave 0 max 0 min
Histogram: 16 0 0 0 0 0 0 0 0 0
FullNghs:  20327.6 ave 22752 max 18080 min
Histogram: 1 2 2 1 3 2 2 1 0 2

Total # of neighbors = 325242
Ave neighs/atom = 325.242
Neighbor list builds = 100000
Dangerous builds not checked
Total wall time: 6:24:21
