LAMMPS (16 Mar 2018)
Reading data file ...
  orthogonal box = (-4.74025 -4.74025 -4.74025) to (4.74025 4.74025 4.74025)
  2 by 2 by 4 MPI processor grid
  reading atoms ...
  1000 atoms
Reading potential file /home/fs01/ajm529/lammps-16Mar18/potentials/sw_potentials/AG/eps2.23.sw with DATE: 2008-01-29
Neighbor list info ...
  update every 1 steps, delay 0 steps, check no
  max neighbors/atom: 2000, page size: 100000
  master list distance cutoff = 3.836
  ghost atom cutoff = 3.836
  binsize = 1.918, bins = 5 5 5
  1 neighbor lists, perpetual/occasional/extra = 1 0 0
  (1) pair sw, perpetual
      attributes: full, newton on
      pair build: full/bin/atomonly
      stencil: full/bin/3d
      bin: standard
Setting up Verlet run ...
  Unit style    : real
  Current step  : 0
  Time step     : 1
Per MPI rank memory allocation (min/avg/max) = 3.518 | 3.518 | 3.519 Mbytes
Step Temp E_pair E_mol TotEng Press Volume Lx Ly Lz S/CPU 
       0          300   -10071.848            0    -9178.499   -29741.913    852.10808     9.480507     9.480507     9.480507            0 
     100    326.38884   -10157.043            0    -9185.113   -71363.413    849.94842    9.4724908    9.4724908    9.4724908    45.802773 
     200    321.12525   -10155.353            0   -9199.0972   -45224.432    843.01652    9.4466689    9.4466689    9.4466689    52.511419 
     300    342.86025   -10242.385            0   -9221.4054   -33188.743    832.65839     9.407819     9.407819     9.407819    77.421502 
     400    333.38746   -10241.746            0   -9248.9751    -25635.26    820.75221    9.3627628    9.3627628    9.3627628    53.858421 
     500    333.67635   -10264.206            0   -9270.5752   -8378.2269    809.17718      9.31854      9.31854      9.31854    68.837505 
     600    340.53243    -10301.25            0   -9287.2026    4715.0465    799.71267    9.2820661    9.2820661    9.2820661    47.011404 
     700    343.27362    -10326.12            0   -9303.9094    23265.393    793.11713    9.2564781    9.2564781    9.2564781    62.377766 
     800    339.50292   -10332.968            0   -9321.9864    29407.593    789.19814    9.2412067    9.2412067    9.2412067    73.048856 
     900    324.59774   -10309.815            0   -9343.2188    5019.4718    787.28544     9.233735     9.233735     9.233735    55.292472 
    1000     336.4332   -10367.854            0    -9366.013    25364.659    786.51484    9.2307213    9.2307213    9.2307213    65.912583 
Loop time of 17.1136 on 16 procs for 1000 steps with 1000 atoms

Performance: 5.049 ns/day, 4.754 hours/ns, 58.433 timesteps/s
94.8% CPU use with 16 MPI tasks x no OpenMP threads

MPI task timing breakdown:
Section |  min time  |  avg time  |  max time  |%varavg| %total
---------------------------------------------------------------
Pair    | 2.1292     | 2.2263     | 2.3232     |   3.5 | 13.01
Neigh   | 0.7455     | 0.78585    | 0.80913    |   1.8 |  4.59
Comm    | 0.87821    | 0.99851    | 1.1367     |   6.5 |  5.83
Output  | 9.0497     | 9.3029     | 13.049     |  31.7 | 54.36
Modify  | 0.045304   | 3.7919     | 4.0457     |  49.7 | 22.16
Other   |            | 0.008121   |            |       |  0.05

Nlocal:    62.5 ave 66 max 57 min
Histogram: 1 0 1 1 1 4 3 2 0 3
Nghost:    1848.69 ave 1872 max 1828 min
Histogram: 2 3 2 1 0 3 0 1 0 4
Neighs:    0 ave 0 max 0 min
Histogram: 16 0 0 0 0 0 0 0 0 0
FullNghs:  18768.6 ave 20026 max 17003 min
Histogram: 1 0 2 0 1 4 3 2 1 2

Total # of neighbors = 300298
Ave neighs/atom = 300.298
Neighbor list builds = 1000
Dangerous builds not checked
Setting up Verlet run ...
  Unit style    : real
  Current step  : 1000
  Time step     : 1
Per MPI rank memory allocation (min/avg/max) = 3.521 | 4.41 | 4.578 Mbytes
Step Temp E_pair E_mol TotEng Press Volume Lx Ly Lz S/CPU 
    1000     336.4332   -10367.854            0    -9366.013    25364.659    786.51484    9.2307213    9.2307213    9.2307213            0 
    1100    325.10751   -10356.913            0   -9388.7988    7543.5961    786.99197    9.2325875    9.2325875    9.2325875     55.65776 
    1200    319.62887   -10361.293            0   -9409.4931    1216.4573     788.4918    9.2384489    9.2384489    9.2384489    71.270081 
    1300    314.69386   -10365.301            0   -9428.1963   -3922.2373     790.1926    9.2450866    9.2450866    9.2450866    47.041441 
    1400    318.49359   -10396.758            0   -9448.3384   -10214.713    791.41173    9.2498387    9.2498387    9.2498387    60.820693 
    1500    307.55516    -10382.52            0   -9466.6733   -11353.728    791.57417    9.2504716    9.2504716    9.2504716    49.427159 
    1600    305.89464   -10397.018            0    -9486.116   -18061.249    790.66798    9.2469402    9.2469402    9.2469402    50.213214 
    1700    299.57362   -10394.495            0   -9502.4155   -9020.2506     789.1058    9.2408463    9.2408463    9.2408463    68.544281 
    1800    322.26668   -10480.596            0   -9520.9413   -3456.2736    786.97584    9.2325244    9.2325244    9.2325244     68.16029 
    1900    310.08748   -10458.739            0   -9535.3512   -1004.3197    784.50223    9.2228411    9.2228411    9.2228411    53.550737 
    2000    311.63447   -10478.141            0   -9550.1463    6079.4667    781.68565    9.2117904    9.2117904    9.2117904    71.699721 
Loop time of 17.1726 on 16 procs for 1000 steps with 1000 atoms

Performance: 5.031 ns/day, 4.770 hours/ns, 58.232 timesteps/s
95.0% CPU use with 16 MPI tasks x no OpenMP threads

MPI task timing breakdown:
Section |  min time  |  avg time  |  max time  |%varavg| %total
---------------------------------------------------------------
Pair    | 2.2505     | 2.3739     | 2.6228     |   5.4 | 13.82
Neigh   | 0.75387    | 0.79498    | 0.86483    |   2.9 |  4.63
Comm    | 0.72102    | 1.0396     | 1.2051     |  10.5 |  6.05
Output  | 8.5138     | 8.7909     | 12.898     |  35.8 | 51.19
Modify  | 0.057118   | 4.165      | 4.4425     |  52.0 | 24.25
Other   |            | 0.008182   |            |       |  0.05

Nlocal:    62.5 ave 68 max 56 min
Histogram: 1 2 0 1 3 2 1 3 1 2
Nghost:    1858.44 ave 1870 max 1837 min
Histogram: 1 1 0 0 1 1 5 4 1 2
Neighs:    0 ave 0 max 0 min
Histogram: 16 0 0 0 0 0 0 0 0 0
FullNghs:  18871.9 ave 20729 max 16890 min
Histogram: 1 2 1 2 2 1 2 2 2 1

Total # of neighbors = 301950
Ave neighs/atom = 301.95
Neighbor list builds = 1000
Dangerous builds not checked
Setting up Verlet run ...
  Unit style    : real
  Current step  : 2000
  Time step     : 1
Per MPI rank memory allocation (min/avg/max) = 3.77 | 4.527 | 4.578 Mbytes
Step Temp E_pair E_mol TotEng Press Volume Lx Ly Lz S/CPU 
    2000    311.63447   -10478.141            0   -9550.1463    6079.4667    781.68565    9.2117904    9.2117904    9.2117904            0 
    2100     298.6249   -10453.238            0   -9563.9837    6659.8343    778.73287    9.2001767    9.2001767    9.2001767    45.697109 
    2200    291.16808     -10444.3            0    -9577.251    8548.8091    776.19843     9.190185     9.190185     9.190185    51.230242 
    2300    308.28105   -10508.839            0   -9590.8303    19184.476     774.4292    9.1831971    9.1831971    9.1831971     40.41913 
    2400    297.88585   -10489.938            0   -9602.8849    19856.953    773.98508    9.1814413    9.1814413    9.1814413    48.695679 
    2500    299.34424   -10507.633            0   -9616.2374    1740.5336    774.86597    9.1849232    9.1849232    9.1849232    44.184556 
    2600    312.56578   -10558.152            0   -9627.3844    4815.0052    776.58372    9.1917053    9.1917053    9.1917053    43.692105 
    2700    299.11956   -10527.547            0   -9636.8201    1169.5362    778.73678    9.2001921    9.2001921    9.2001921    47.015717 
    2800    292.59471    -10517.08            0   -9645.7828    2150.4539    781.21379    9.2099365    9.2099365    9.2099365     51.77948 
    2900    292.79017   -10525.125            0   -9653.2459    -301.5637    783.55201    9.2191159    9.2191159    9.2191159    68.697015 
    3000    290.83399    -10523.81            0   -9657.7564   -5230.6536    785.36888    9.2262361    9.2262361    9.2262361    47.161828 
Loop time of 20.8542 on 16 procs for 1000 steps with 1000 atoms

Performance: 4.143 ns/day, 5.793 hours/ns, 47.952 timesteps/s
94.8% CPU use with 16 MPI tasks x no OpenMP threads

MPI task timing breakdown:
Section |  min time  |  avg time  |  max time  |%varavg| %total
---------------------------------------------------------------
Pair    | 2.2756     | 2.4437     | 2.5997     |   5.0 | 11.72
Neigh   | 0.77137    | 0.80396    | 0.8464     |   1.9 |  3.86
Comm    | 0.85947    | 1.0578     | 1.2514     |   9.1 |  5.07
Output  | 11.427     | 11.746     | 16.461     |  35.5 | 56.33
Modify  | 0.078907   | 4.7941     | 5.1139     |  55.6 | 22.99
Other   |            | 0.008275   |            |       |  0.04

Nlocal:    62.5 ave 68 max 58 min
Histogram: 1 0 4 1 2 4 1 1 0 2
Nghost:    1857.94 ave 1874 max 1843 min
Histogram: 2 0 2 3 2 1 3 0 2 1
Neighs:    0 ave 0 max 0 min
Histogram: 16 0 0 0 0 0 0 0 0 0
FullNghs:  18789.4 ave 20624 max 17447 min
Histogram: 1 4 1 2 4 1 1 0 0 2

Total # of neighbors = 300630
Ave neighs/atom = 300.63
Neighbor list builds = 1000
Dangerous builds not checked
Setting up Verlet run ...
  Unit style    : real
  Current step  : 3000
  Time step     : 1
Per MPI rank memory allocation (min/avg/max) = 4.577 | 4.578 | 4.579 Mbytes
Step Temp E_pair E_mol TotEng Press Volume Lx Ly Lz S/CPU 
    3000    290.83399    -10523.81            0   -9657.7564   -5230.6536    785.36888    9.2262361    9.2262361    9.2262361            0 
    3100    298.39869   -10549.338            0   -9660.7576   -11694.263    786.34804    9.2300688    9.2300688    9.2300688    65.122118 
    3200    285.51229   -10512.477            0   -9662.2697   -16671.078    785.96939     9.228587     9.228587     9.228587    50.974996 
    3300     286.9169   -10517.191            0   -9662.8019   -22778.833    784.43112    9.2225625    9.2225625    9.2225625    58.264775 
    3400    296.15112   -10542.498            0   -9660.6106   -11439.591     781.8997    9.2126311    9.2126311    9.2126311    58.028483 
    3500    287.45583   -10511.352            0    -9655.358   -5715.1375    778.39505    9.1988461    9.1988461    9.1988461    52.008465 
    3600    296.51148   -10532.822            0   -9649.8615    5280.6163    774.62352    9.1839651    9.1839651    9.1839651    62.309454 
    3700    307.37916   -10558.388            0   -9643.0649    17096.748    771.13966    9.1701762    9.1701762    9.1701762    54.589259 
    3800    289.32332   -10494.818            0   -9633.2627     18602.73     768.8634    9.1611444    9.1611444    9.1611444    55.156836 
    3900    287.16721   -10479.429            0   -9624.2943    10548.493    768.22937    9.1586255    9.1586255    9.1586255    61.760636 
    4000    288.20704   -10472.937            0    -9614.706     12659.64    768.77685    9.1608006    9.1608006    9.1608006    48.205656 
Loop time of 17.8031 on 16 procs for 1000 steps with 1000 atoms

Performance: 4.853 ns/day, 4.945 hours/ns, 56.170 timesteps/s
95.0% CPU use with 16 MPI tasks x no OpenMP threads

MPI task timing breakdown:
Section |  min time  |  avg time  |  max time  |%varavg| %total
---------------------------------------------------------------
Pair    | 2.2947     | 2.4545     | 2.6307     |   6.2 | 13.79
Neigh   | 0.76354    | 0.80762    | 0.86298    |   2.9 |  4.54
Comm    | 0.79888    | 1.0304     | 1.2347     |  11.9 |  5.79
Output  | 9.2409     | 9.5076     | 13.457     |  33.1 | 53.40
Modify  | 0.044639   | 3.9947     | 4.2613     |  51.0 | 22.44
Other   |            | 0.008259   |            |       |  0.05

Nlocal:    62.5 ave 66 max 54 min
Histogram: 1 0 1 0 0 2 0 5 4 3
Nghost:    1889.94 ave 1914 max 1873 min
Histogram: 1 3 2 3 2 2 1 1 0 1
Neighs:    0 ave 0 max 0 min
Histogram: 16 0 0 0 0 0 0 0 0 0
FullNghs:  19195.2 ave 20183 max 16419 min
Histogram: 1 0 1 0 0 0 2 4 5 3

Total # of neighbors = 307124
Ave neighs/atom = 307.124
Neighbor list builds = 1000
Dangerous builds not checked
Setting up Verlet run ...
  Unit style    : real
  Current step  : 4000
  Time step     : 1
Per MPI rank memory allocation (min/avg/max) = 4.577 | 4.578 | 4.579 Mbytes
Step Temp E_pair E_mol TotEng Press Volume Lx Ly Lz S/CPU 
    4000    288.20704   -10472.937            0    -9614.706     12659.64    768.77685    9.1608006    9.1608006    9.1608006            0 
    4100    310.56553   -10533.031            0   -9608.2199    16212.099    770.47203     9.167529     9.167529     9.167529    66.038098 
    4200     297.9535   -10487.918            0   -9600.6635    16765.765    773.43732    9.1792749    9.1792749    9.1792749    47.774326 
    4300    313.87155   -10530.456            0   -9595.8003    4192.0207    776.95748    9.1931797    9.1931797    9.1931797    62.559852 
    4400    314.99189   -10528.288            0   -9590.2963    7553.8501    780.53624    9.2072731    9.2072731    9.2072731    53.402562 
    4500    299.39175   -10477.434            0   -9585.8967    8950.9713    784.26067    9.2218944    9.2218944    9.2218944    50.088784 
    4600     303.2035   -10485.123            0   -9582.2346    -14673.41    787.12385    9.2331032    9.2331032    9.2331032    59.611595 
    4700    310.27441    -10503.23            0   -9579.2858   -6887.3471    788.94357     9.240213     9.240213     9.240213    50.689742 
    4800    301.35078   -10473.728            0   -9576.3567   -7789.2678    789.80303    9.2435671    9.2435671    9.2435671    52.925683 
    4900    308.31784   -10492.585            0   -9574.4675    4385.3796    789.48671    9.2423329    9.2423329    9.2423329    46.936451 
    5000    310.68767   -10498.087            0   -9572.9122    4115.5345    788.57565    9.2387764    9.2387764    9.2387764    65.144435 
Loop time of 18.2803 on 16 procs for 1000 steps with 1000 atoms

Performance: 4.726 ns/day, 5.078 hours/ns, 54.704 timesteps/s
94.9% CPU use with 16 MPI tasks x no OpenMP threads

MPI task timing breakdown:
Section |  min time  |  avg time  |  max time  |%varavg| %total
---------------------------------------------------------------
Pair    | 2.3098     | 2.4436     | 2.719      |   6.5 | 13.37
Neigh   | 0.78088    | 0.80848    | 0.86996    |   2.6 |  4.42
Comm    | 0.66304    | 0.99925    | 1.1584     |  12.0 |  5.47
Output  | 9.5586     | 9.843      | 13.979     |  34.0 | 53.84
Modify  | 0.040674   | 4.1777     | 4.4617     |  52.3 | 22.85
Other   |            | 0.00826    |            |       |  0.05

Nlocal:    62.5 ave 68 max 56 min
Histogram: 1 0 2 1 2 4 2 1 0 3
Nghost:    1848.44 ave 1867 max 1832 min
Histogram: 2 3 0 0 3 2 2 1 1 2
Neighs:    0 ave 0 max 0 min
Histogram: 16 0 0 0 0 0 0 0 0 0
FullNghs:  18711 ave 20355 max 16763 min
Histogram: 1 0 2 1 4 1 3 1 1 2

Total # of neighbors = 299376
Ave neighs/atom = 299.376
Neighbor list builds = 1000
Dangerous builds not checked
Setting up Verlet run ...
  Unit style    : real
  Current step  : 5000
  Time step     : 1
Per MPI rank memory allocation (min/avg/max) = 4.577 | 4.578 | 4.579 Mbytes
Step Temp E_pair E_mol TotEng Press Volume Lx Ly Lz S/CPU 
    5000    310.68767   -10498.087            0   -9572.9122    4115.5345    788.57565    9.2387764    9.2387764    9.2387764            0 
    5100    316.53806   -10514.468            0   -9571.8716    2362.7369    787.51607    9.2346366    9.2346366    9.2346366    62.199038 
    5200    304.10317   -10476.703            0    -9571.136   -171.04223    786.39055    9.2302351    9.2302351    9.2302351    45.950363 
    5300    301.61694   -10471.266            0   -9573.1026   -2073.7111    785.08756    9.2251343    9.2251343    9.2251343    52.411778 
    5400    292.23558   -10443.051            0   -9572.8234    13067.435    783.94155    9.2206434    9.2206434    9.2206434    55.902101 
    5500    305.35268   -10485.171            0    -9575.883    6659.2989    783.24747    9.2179214    9.2179214    9.2179214    65.926706 
    5600    307.31515   -10495.777            0   -9580.6454    1559.7066    783.05119    9.2171513    9.2171513    9.2171513    50.411424 
    5700     291.5053   -10456.848            0   -9588.7951   -13245.268    783.17422     9.217634     9.217634     9.217634    65.161335 
    5800    304.08022   -10507.955            0   -9602.4563    7859.7523    782.89178    9.2165258    9.2165258    9.2165258    49.427165 
    5900    300.58503    -10511.42            0   -9616.3286    3408.2094    782.85732    9.2163906    9.2163906    9.2163906    49.151189 
    6000     298.6575   -10518.104            0   -9628.7528   -11434.348    783.28227    9.2180579    9.2180579    9.2180579    65.010573 
Loop time of 18.112 on 16 procs for 1000 steps with 1000 atoms

Performance: 4.770 ns/day, 5.031 hours/ns, 55.212 timesteps/s
94.9% CPU use with 16 MPI tasks x no OpenMP threads

MPI task timing breakdown:
Section |  min time  |  avg time  |  max time  |%varavg| %total
---------------------------------------------------------------
Pair    | 2.2669     | 2.3846     | 2.611      |   5.6 | 13.17
Neigh   | 0.76261    | 0.79528    | 0.83382    |   2.4 |  4.39
Comm    | 0.76039    | 1.0255     | 1.1764     |  10.3 |  5.66
Output  | 9.1258     | 9.4244     | 13.845     |  37.2 | 52.03
Modify  | 0.052325   | 4.474      | 4.7724     |  54.0 | 24.70
Other   |            | 0.008233   |            |       |  0.05

Nlocal:    62.5 ave 66 max 60 min
Histogram: 3 1 0 4 0 3 4 0 0 1
Nghost:    1849.19 ave 1870 max 1829 min
Histogram: 2 1 0 1 5 3 0 2 1 1
Neighs:    0 ave 0 max 0 min
Histogram: 16 0 0 0 0 0 0 0 0 0
FullNghs:  18840.4 ave 19909 max 17965 min
Histogram: 2 2 0 3 2 2 1 3 0 1

Total # of neighbors = 301446
Ave neighs/atom = 301.446
Neighbor list builds = 1000
Dangerous builds not checked
Setting up Verlet run ...
  Unit style    : real
  Current step  : 6000
  Time step     : 1
Per MPI rank memory allocation (min/avg/max) = 4.577 | 4.578 | 4.579 Mbytes
Step Temp E_pair E_mol TotEng Press Volume Lx Ly Lz S/CPU 
    6000     298.6575   -10518.104            0   -9628.7528   -11434.348    783.28227    9.2180579    9.2180579    9.2180579            0 
    6100    297.64516   -10526.354            0   -9640.0171   -10504.496    783.44027    9.2186777    9.2186777    9.2186777    52.506119 
    6200    290.75456   -10513.606            0   -9647.7884    4600.2915     783.1885    9.2176901    9.2176901    9.2176901    57.222055 
    6300    293.14604   -10525.381            0    -9652.442   -20318.106    782.85035    9.2163632    9.2163632    9.2163632    56.359078 
    6400    292.50096   -10526.384            0   -9655.3661   -2133.4096    782.12875    9.2135306    9.2135306    9.2135306    65.438183 
    6500    295.77256   -10537.361            0    -9656.601    5847.4243     781.0104    9.2091371    9.2091371    9.2091371    41.898269 
    6600    293.13075   -10529.076            0   -9656.1823    14816.216    780.04475    9.2053401    9.2053401    9.2053401     43.71516 
    6700     301.2499   -10550.817            0   -9653.7463    3229.0692    779.71477    9.2040419    9.2040419    9.2040419     51.99533 
    6800    297.95296   -10538.431            0   -9651.1776   -15252.235    779.72336    9.2040757    9.2040757    9.2040757    59.754202 
    6900    289.88523   -10510.853            0    -9647.624    13807.497    779.60704     9.203618     9.203618     9.203618    47.755873 
    7000    285.44303   -10492.583            0   -9642.5827    11896.981    780.01545    9.2052249    9.2052249    9.2052249    52.618819 
Loop time of 19.2201 on 16 procs for 1000 steps with 1000 atoms

Performance: 4.495 ns/day, 5.339 hours/ns, 52.029 timesteps/s
94.8% CPU use with 16 MPI tasks x no OpenMP threads

MPI task timing breakdown:
Section |  min time  |  avg time  |  max time  |%varavg| %total
---------------------------------------------------------------
Pair    | 2.2767     | 2.3767     | 2.4866     |   3.8 | 12.37
Neigh   | 0.75715    | 0.79231    | 0.81109    |   1.7 |  4.12
Comm    | 0.93921    | 1.0628     | 1.1935     |   6.9 |  5.53
Output  | 10.74      | 11.004     | 14.915     |  30.4 | 57.25
Modify  | 0.062293   | 3.9759     | 4.2412     |  50.7 | 20.69
Other   |            | 0.008161   |            |       |  0.04

Nlocal:    62.5 ave 68 max 57 min
Histogram: 1 1 3 2 1 1 3 1 2 1
Nghost:    1880.44 ave 1897 max 1864 min
Histogram: 2 1 0 3 4 1 0 2 1 2
Neighs:    0 ave 0 max 0 min
Histogram: 16 0 0 0 0 0 0 0 0 0
FullNghs:  18909.4 ave 20582 max 17088 min
Histogram: 1 1 2 2 2 0 3 2 2 1

Total # of neighbors = 302550
Ave neighs/atom = 302.55
Neighbor list builds = 1000
Dangerous builds not checked
Setting up Verlet run ...
  Unit style    : real
  Current step  : 7000
  Time step     : 1
Per MPI rank memory allocation (min/avg/max) = 4.577 | 4.578 | 4.579 Mbytes
Step Temp E_pair E_mol TotEng Press Volume Lx Ly Lz S/CPU 
    7000    285.44303   -10492.583            0   -9642.5827    11896.981    780.01545    9.2052249    9.2052249    9.2052249            0 
    7100    291.78224   -10505.465            0    -9636.587    7053.9924    781.16214    9.2097335    9.2097335    9.2097335    56.395292 
    7200    290.12204   -10492.987            0   -9629.0534   -6130.8213    782.86497    9.2164206    9.2164206    9.2164206    62.389304 
    7300    298.01974   -10508.465            0   -9621.0126   -1608.0821    784.76377    9.2238659    9.2238659    9.2238659    51.222781 
    7400    299.37301   -10503.339            0   -9611.8575   -16126.734    786.82075    9.2319179    9.2319179    9.2319179    53.566407 
    7500     295.7073   -10481.575            0   -9601.0088    1918.6424    788.74324    9.2394308    9.2394308    9.2394308    68.280192 
    7600    301.10474   -10489.379            0   -9592.7404   -5082.6098    790.09236    9.2446957    9.2446957    9.2446957    46.504937 
    7700    303.94206   -10489.161            0   -9584.0737   -3809.1543    790.45108    9.2460946    9.2460946    9.2460946    63.289313 
    7800    306.46047   -10490.503            0   -9577.9159   -12230.305    789.79219    9.2435248    9.2435248    9.2435248    54.088695 
    7900    295.15403   -10453.857            0   -9574.9384   -8701.8652    788.03602    9.2366685    9.2366685    9.2366685    61.625503 
    8000    312.00169   -10503.012            0   -9573.9239     14089.53    785.46895    9.2266279    9.2266279    9.2266279    63.151812 
Loop time of 17.4451 on 16 procs for 1000 steps with 1000 atoms

Performance: 4.953 ns/day, 4.846 hours/ns, 57.323 timesteps/s
94.9% CPU use with 16 MPI tasks x no OpenMP threads

MPI task timing breakdown:
Section |  min time  |  avg time  |  max time  |%varavg| %total
---------------------------------------------------------------
Pair    | 2.2611     | 2.3543     | 2.5563     |   4.9 | 13.50
Neigh   | 0.7646     | 0.79149    | 0.84208    |   2.2 |  4.54
Comm    | 0.7665     | 1.0174     | 1.1351     |   9.0 |  5.83
Output  | 9.2148     | 9.4689     | 13.23      |  31.6 | 54.28
Modify  | 0.041493   | 3.8049     | 4.0594     |  49.8 | 21.81
Other   |            | 0.008118   |            |       |  0.05

Nlocal:    62.5 ave 68 max 57 min
Histogram: 2 2 1 1 1 1 4 2 0 2
Nghost:    1842.81 ave 1860 max 1824 min
Histogram: 1 1 0 0 5 5 1 0 2 1
Neighs:    0 ave 0 max 0 min
Histogram: 16 0 0 0 0 0 0 0 0 0
FullNghs:  18781.2 ave 20498 max 17170 min
Histogram: 2 2 1 1 1 2 4 1 0 2

Total # of neighbors = 300500
Ave neighs/atom = 300.5
Neighbor list builds = 1000
Dangerous builds not checked
Setting up Verlet run ...
  Unit style    : real
  Current step  : 8000
  Time step     : 1
Per MPI rank memory allocation (min/avg/max) = 4.577 | 4.578 | 4.579 Mbytes
Step Temp E_pair E_mol TotEng Press Volume Lx Ly Lz S/CPU 
    8000    312.00169   -10503.012            0   -9573.9239     14089.53    785.46895    9.2266279    9.2266279    9.2266279            0 
    8100    308.61175   -10492.683            0   -9573.6895    21281.242    782.91335    9.2166105    9.2166105    9.2166105    47.079463 
    8200    302.11256   -10473.679            0   -9574.0394    14948.709    781.04276    9.2092643    9.2092643    9.2092643    65.366644 
    8300    304.89194   -10484.217            0   -9576.3012    11466.749    780.09221    9.2055268    9.2055268    9.2055268     49.53284 
    8400    313.17734   -10512.749            0   -9580.1602    16943.176    780.05888    9.2053957    9.2053957    9.2053957    61.653564 
    8500    308.06029   -10501.455            0   -9584.1042    17001.608    780.97019    9.2089791    9.2089791    9.2089791    56.565219 
    8600    306.34814   -10501.361            0   -9589.1082    6610.8941    782.52347    9.2150803    9.2150803    9.2150803    60.741689 
    8700    292.64221   -10465.779            0   -9594.3408   -10281.493    784.30451    9.2220662    9.2220662    9.2220662    51.281072 
    8800    302.43818   -10502.022            0   -9601.4126   -11887.459    785.81527    9.2279838    9.2279838    9.2279838    48.861285 
    8900    301.96066   -10507.124            0    -9607.937   -9413.6064    786.70746    9.2314748    9.2314748    9.2314748    70.002466 
    9000    302.33701   -10514.093            0   -9613.7854    268.35841    787.05013     9.232815     9.232815     9.232815    49.912714 
Loop time of 18.1376 on 16 procs for 1000 steps with 1000 atoms

Performance: 4.764 ns/day, 5.038 hours/ns, 55.134 timesteps/s
94.9% CPU use with 16 MPI tasks x no OpenMP threads

MPI task timing breakdown:
Section |  min time  |  avg time  |  max time  |%varavg| %total
---------------------------------------------------------------
Pair    | 2.3204     | 2.4167     | 2.7007     |   5.8 | 13.32
Neigh   | 0.76746    | 0.80173    | 0.87144    |   2.6 |  4.42
Comm    | 0.6657     | 1.019      | 1.1287     |  10.9 |  5.62
Output  | 9.6281     | 9.895      | 13.849     |  32.5 | 54.56
Modify  | 0.04211    | 3.9969     | 4.2636     |  51.1 | 22.04
Other   |            | 0.008214   |            |       |  0.05

Nlocal:    62.5 ave 68 max 57 min
Histogram: 2 1 1 3 0 3 1 2 1 2
Nghost:    1854.38 ave 1866 max 1839 min
Histogram: 1 1 1 0 3 2 2 3 2 1
Neighs:    0 ave 0 max 0 min
Histogram: 16 0 0 0 0 0 0 0 0 0
FullNghs:  18753.9 ave 20324 max 17058 min
Histogram: 2 1 0 4 0 2 2 1 2 2

Total # of neighbors = 300062
Ave neighs/atom = 300.062
Neighbor list builds = 1000
Dangerous builds not checked
Setting up Verlet run ...
  Unit style    : real
  Current step  : 9000
  Time step     : 1
Per MPI rank memory allocation (min/avg/max) = 4.577 | 4.578 | 4.579 Mbytes
Step Temp E_pair E_mol TotEng Press Volume Lx Ly Lz S/CPU 
    9000    302.33701   -10514.093            0   -9613.7854    268.35841    787.05013     9.232815     9.232815     9.232815            0 
    9100    299.46439   -10511.668            0   -9619.9145    -1968.985    787.16276    9.2332554    9.2332554    9.2332554    63.085182 
    9200    289.67728   -10486.713            0   -9624.1031   -1086.2019    787.10289    9.2330212    9.2330212    9.2330212    47.322518 
    9300    300.77284   -10522.763            0   -9627.1124   -4274.9537    786.72278    9.2315348    9.2315348    9.2315348    55.126437 
    9400    284.75264   -10476.983            0   -9629.0387   -15041.829    786.32894     9.229994     9.229994     9.229994    64.759498 
    9500    291.36775   -10499.412            0   -9631.7683    -1554.521     785.2989     9.225962     9.225962     9.225962    57.082231 
    9600    300.31761   -10526.212            0   -9631.9173    24901.443    784.18784     9.221609     9.221609     9.221609    61.484768 
    9700    294.04859   -10505.563            0   -9629.9365   -18045.064    783.76059    9.2199339    9.2199339    9.2199339    57.233313 
    9800    293.19103   -10499.166            0   -9626.0937   -221.20255    783.04278    9.2171183    9.2171183    9.2171183    55.429691 
    9900    294.52419   -10495.545            0   -9618.5018    10654.945    782.21068    9.2138523    9.2138523    9.2138523    60.451227 
   10000    301.85002   -10506.488            0   -9607.6305    10200.573    781.95074    9.2128316    9.2128316    9.2128316    58.114632 
Loop time of 17.3611 on 16 procs for 1000 steps with 1000 atoms

Performance: 4.977 ns/day, 4.823 hours/ns, 57.600 timesteps/s
94.9% CPU use with 16 MPI tasks x no OpenMP threads

MPI task timing breakdown:
Section |  min time  |  avg time  |  max time  |%varavg| %total
---------------------------------------------------------------
Pair    | 2.2233     | 2.4551     | 2.5978     |   5.7 | 14.14
Neigh   | 0.78052    | 0.81523    | 0.86014    |   2.5 |  4.70
Comm    | 0.79715    | 0.97728    | 1.2435     |  11.0 |  5.63
Output  | 9.0338     | 9.287      | 13.035     |  31.8 | 53.49
Modify  | 0.069921   | 3.8182     | 4.0718     |  49.5 | 21.99
Other   |            | 0.008289   |            |       |  0.05

Nlocal:    62.5 ave 69 max 55 min
Histogram: 2 1 1 2 1 2 0 4 0 3
Nghost:    1853.75 ave 1870 max 1832 min
Histogram: 1 1 3 0 0 2 4 0 3 2
Neighs:    0 ave 0 max 0 min
Histogram: 16 0 0 0 0 0 0 0 0 0
FullNghs:  18882 ave 20868 max 16363 min
Histogram: 1 2 0 2 2 1 1 3 1 3

Total # of neighbors = 302112
Ave neighs/atom = 302.112
Neighbor list builds = 1000
Dangerous builds not checked
Setting up Verlet run ...
  Unit style    : real
  Current step  : 10000
  Time step     : 1
Per MPI rank memory allocation (min/avg/max) = 4.577 | 4.578 | 4.579 Mbytes
Step Temp E_pair E_mol TotEng Press Volume Lx Ly Lz S/CPU 
   10000    301.85002   -10506.488            0   -9607.6305    10200.573    781.95074    9.2128316    9.2128316    9.2128316            0 
   10100      308.312   -10510.106            0   -9592.0053    4193.9623    782.28891    9.2141595    9.2141595    9.2141595    59.028887 
   10200    300.28431   -10468.944            0   -9574.7482    4941.1649    783.12066    9.2174239    9.2174239    9.2174239    57.460836 
   10300    304.04299   -10465.286            0   -9559.8976   -10848.036    784.45674    9.2226628    9.2226628    9.2226628    66.726783 
   10400    299.49757   -10440.347            0   -9548.4942    728.67626    785.83221    9.2280501    9.2280501    9.2280501      53.0392 
   10500    314.82484   -10479.789            0   -9542.2946    9647.3732    787.31803    9.2338624    9.2338624    9.2338624    53.802981 
   10600    315.41398   -10477.015            0   -9537.7665   -1765.6199    789.23658    9.2413568    9.2413568    9.2413568    68.728132 
   10700    308.49663   -10455.769            0   -9537.1183    -6670.581    791.15209    9.2488271    9.2488271    9.2488271    53.821369 
   10800    301.69716   -10434.984            0   -9536.5816    2.5473612    792.83608    9.2553846    9.2553846    9.2553846     68.28257 
   10900    303.58466   -10443.769            0    -9539.746   -18630.434    793.89361    9.2594979    9.2594979    9.2594979    53.336175 
   11000    302.80358   -10444.611            0    -9542.914   -8902.4901    793.93847    9.2596723    9.2596723    9.2596723    66.128178 
Loop time of 16.8417 on 16 procs for 1000 steps with 1000 atoms

Performance: 5.130 ns/day, 4.678 hours/ns, 59.376 timesteps/s
95.0% CPU use with 16 MPI tasks x no OpenMP threads

MPI task timing breakdown:
Section |  min time  |  avg time  |  max time  |%varavg| %total
---------------------------------------------------------------
Pair    | 2.2514     | 2.4347     | 2.6744     |   7.3 | 14.46
Neigh   | 0.76415    | 0.80976    | 0.86518    |   3.1 |  4.81
Comm    | 0.7153     | 1.0105     | 1.2237     |  13.9 |  6.00
Output  | 8.2424     | 8.5134     | 12.527     |  35.5 | 50.55
Modify  | 0.05072    | 4.0651     | 4.3374     |  51.4 | 24.14
Other   |            | 0.008278   |            |       |  0.05

Nlocal:    62.5 ave 66 max 57 min
Histogram: 1 1 0 1 1 2 4 3 2 1
Nghost:    1841.12 ave 1860 max 1830 min
Histogram: 1 2 2 5 2 2 1 0 0 1
Neighs:    0 ave 0 max 0 min
Histogram: 16 0 0 0 0 0 0 0 0 0
FullNghs:  18568 ave 19644 max 16871 min
Histogram: 1 1 0 1 1 2 3 4 0 3

Total # of neighbors = 297088
Ave neighs/atom = 297.088
Neighbor list builds = 1000
Dangerous builds not checked
Setting up Verlet run ...
  Unit style    : real
  Current step  : 11000
  Time step     : 1
Per MPI rank memory allocation (min/avg/max) = 4.577 | 4.578 | 4.579 Mbytes
Step Temp E_pair E_mol TotEng Press Volume Lx Ly Lz S/CPU 
   11000    302.80358   -10444.611            0    -9542.914   -8902.4901    793.93847    9.2596723    9.2596723    9.2596723            0 
   11100    304.37914   -10452.485            0   -9546.0963   -32272.939    792.94208     9.255797     9.255797     9.255797    55.142152 
   11200    299.96572   -10444.035            0   -9550.7878   -9350.5823    790.75422    9.2472764    9.2472764    9.2472764    57.678473 
   11300    307.60962   -10473.241            0   -9557.2318    3055.5524    787.88594    9.2360821    9.2360821    9.2360821    49.093696 
   11400    294.96612   -10442.258            0   -9563.8996    10523.885    785.02743    9.2248988    9.2248988    9.2248988    58.294156 
   11500    306.08782   -10483.487            0   -9572.0102   -1466.9684    782.57154     9.215269     9.215269     9.215269    74.013392 
   11600    309.41201     -10501.1            0   -9579.7236    7111.1034    780.12414    9.2056524    9.2056524    9.2056524    53.976036 
   11700    313.40602   -10522.029            0   -9588.7592    13961.647    778.06139    9.1975316    9.1975316    9.1975316    67.871373 
   11800    306.44413    -10509.89            0   -9597.3521    17313.746     777.0554    9.1935659    9.1935659    9.1935659    47.003632 
   11900    295.47642   -10485.974            0   -9606.0955   -7722.7596    777.06396    9.1935997    9.1935997    9.1935997    67.118655 
   12000     307.9501   -10531.077            0   -9614.0545    9998.1521    777.59359    9.1956879    9.1956879    9.1956879    46.349393 
Loop time of 17.7517 on 16 procs for 1000 steps with 1000 atoms

Performance: 4.867 ns/day, 4.931 hours/ns, 56.333 timesteps/s
95.0% CPU use with 16 MPI tasks x no OpenMP threads

MPI task timing breakdown:
Section |  min time  |  avg time  |  max time  |%varavg| %total
---------------------------------------------------------------
Pair    | 2.3491     | 2.4595     | 2.7654     |   6.6 | 13.86
Neigh   | 0.78662    | 0.81168    | 0.88343    |   2.6 |  4.57
Comm    | 0.65818    | 1.035      | 1.1672     |  12.2 |  5.83
Output  | 8.8599     | 9.1444     | 13.363     |  36.0 | 51.51
Modify  | 0.073572   | 4.2928     | 4.5771     |  52.6 | 24.18
Other   |            | 0.008271   |            |       |  0.05

Nlocal:    62.5 ave 69 max 56 min
Histogram: 2 0 2 3 2 2 1 0 0 4
Nghost:    1869.62 ave 1896 max 1852 min
Histogram: 3 1 3 2 3 1 0 0 1 2
Neighs:    0 ave 0 max 0 min
Histogram: 16 0 0 0 0 0 0 0 0 0
FullNghs:  18962 ave 21321 max 16748 min
Histogram: 1 2 0 4 4 1 0 0 2 2

Total # of neighbors = 303392
Ave neighs/atom = 303.392
Neighbor list builds = 1000
Dangerous builds not checked
Setting up Verlet run ...
  Unit style    : real
  Current step  : 12000
  Time step     : 1
Per MPI rank memory allocation (min/avg/max) = 4.577 | 4.578 | 4.579 Mbytes
Step Temp E_pair E_mol TotEng Press Volume Lx Ly Lz S/CPU 
   12000     307.9501   -10531.077            0   -9614.0545    9998.1521    777.59359    9.1956879    9.1956879    9.1956879            0 
   12100    295.65809   -10499.604            0   -9619.1846    11695.291    778.75214    9.2002526    9.2002526    9.2002526    50.343636 
   12200    293.27642    -10497.25            0   -9623.9233     9321.928    780.67536    9.2078201    9.2078201    9.2078201    64.025548 
   12300    302.51341   -10529.531            0   -9628.6977    950.14586    783.20422    9.2177517    9.2177517    9.2177517    47.330778 
   12400    297.60634   -10517.543            0   -9631.3219   -9498.5081    785.77766    9.2278365    9.2278365    9.2278365    56.566216 
   12500    298.36596   -10520.641            0   -9632.1581   -24469.088    787.99879     9.236523     9.236523     9.236523    60.975878 
   12600    293.68139   -10506.414            0   -9631.8814   -31800.009    789.15826    9.2410511    9.2410511    9.2410511    56.554645 
   12700     296.0067   -10511.847            0   -9630.3898   -14574.084    788.84668    9.2398347    9.2398347    9.2398347    63.727257 
   12800    300.13215   -10521.488            0   -9627.7458   -11757.747     787.4569    9.2344053    9.2344053    9.2344053    50.140287 
   12900    291.26709    -10492.53            0   -9625.1859   -14831.659    785.66426    9.2273926    9.2273926    9.2273926     63.77318 
   13000    306.61706   -10535.609            0   -9622.5556   -17760.389    783.39342    9.2184939    9.2184939    9.2184939    55.365651 
Loop time of 17.7749 on 16 procs for 1000 steps with 1000 atoms

Performance: 4.861 ns/day, 4.937 hours/ns, 56.259 timesteps/s
94.9% CPU use with 16 MPI tasks x no OpenMP threads

MPI task timing breakdown:
Section |  min time  |  avg time  |  max time  |%varavg| %total
---------------------------------------------------------------
Pair    | 2.2207     | 2.3694     | 2.5436     |   6.1 | 13.33
Neigh   | 0.75998    | 0.79271    | 0.82785    |   2.2 |  4.46
Comm    | 0.84009    | 1.0377     | 1.2121     |  10.7 |  5.84
Output  | 8.829      | 9.125      | 13.514     |  37.5 | 51.34
Modify  | 0.050945   | 4.442      | 4.7404     |  53.8 | 24.99
Other   |            | 0.008156   |            |       |  0.05

Nlocal:    62.5 ave 66 max 59 min
Histogram: 3 0 0 0 5 3 0 2 2 1
Nghost:    1854.94 ave 1866 max 1844 min
Histogram: 2 2 0 2 0 3 4 1 1 1
Neighs:    0 ave 0 max 0 min
Histogram: 16 0 0 0 0 0 0 0 0 0
FullNghs:  18834 ave 19854 max 17827 min
Histogram: 3 0 0 0 5 3 0 3 1 1

Total # of neighbors = 301344
Ave neighs/atom = 301.344
Neighbor list builds = 1000
Dangerous builds not checked
Setting up Verlet run ...
  Unit style    : real
  Current step  : 13000
  Time step     : 1
Per MPI rank memory allocation (min/avg/max) = 4.577 | 4.578 | 4.579 Mbytes
Step Temp E_pair E_mol TotEng Press Volume Lx Ly Lz S/CPU 
   13000    306.61706   -10535.609            0   -9622.5556   -17760.389    783.39342    9.2184939    9.2184939    9.2184939            0 
   13100    298.20252   -10506.763            0   -9618.7671   -243.58407    780.56449    9.2073842    9.2073842    9.2073842     50.30702 
   13200    309.19256   -10536.046            0   -9615.3234    6020.3983    777.73147    9.1962314    9.1962314    9.1962314    74.797196 
   13300    300.43058   -10503.857            0   -9609.2258    13393.082    775.43918    9.1871875    9.1871875    9.1871875    55.093519 
   13400    318.81731   -10556.203            0   -9606.8199    37715.711    774.37468    9.1829816    9.1829816    9.1829816     65.89981 
   13500    299.03486   -10493.685            0   -9603.2104    19797.963    775.31436    9.1866946    9.1866946    9.1866946    52.330057 
   13600    309.50905   -10524.913            0   -9603.2478    13965.095    777.69817    9.1961002    9.1961002    9.1961002    53.271797 
   13700    301.95724   -10501.244            0   -9602.0666    -5407.579    780.66199    9.2077675    9.2077675    9.2077675     46.48247 
   13800    292.54506   -10470.951            0   -9599.8014    4128.5314    783.28071    9.2180518    9.2180518    9.2180518    50.958202 
   13900    303.72423   -10503.606            0   -9599.1671   -1582.4202    785.23599    9.2257157    9.2257157    9.2257157    50.397172 
   14000    307.22844    -10513.67            0   -9598.7958    11232.824    786.56384     9.230913     9.230913     9.230913    53.437049 
Loop time of 18.4148 on 16 procs for 1000 steps with 1000 atoms

Performance: 4.692 ns/day, 5.115 hours/ns, 54.304 timesteps/s
94.9% CPU use with 16 MPI tasks x no OpenMP threads

MPI task timing breakdown:
Section |  min time  |  avg time  |  max time  |%varavg| %total
---------------------------------------------------------------
Pair    | 2.2118     | 2.4788     | 2.7299     |   7.7 | 13.46
Neigh   | 0.74944    | 0.81554    | 0.86893    |   3.1 |  4.43
Comm    | 0.71727    | 1.0233     | 1.3574     |  14.6 |  5.56
Output  | 9.7515     | 10.023     | 14.042     |  32.8 | 54.43
Modify  | 0.048155   | 4.066      | 4.3368     |  51.4 | 22.08
Other   |            | 0.008294   |            |       |  0.05

Nlocal:    62.5 ave 67 max 58 min
Histogram: 2 1 2 1 1 2 3 1 2 1
Nghost:    1840.62 ave 1851 max 1831 min
Histogram: 1 0 2 2 3 4 2 0 0 2
Neighs:    0 ave 0 max 0 min
Histogram: 16 0 0 0 0 0 0 0 0 0
FullNghs:  18741.4 ave 20078 max 17305 min
Histogram: 2 2 0 2 1 2 2 2 1 2

Total # of neighbors = 299862
Ave neighs/atom = 299.862
Neighbor list builds = 1000
Dangerous builds not checked
Setting up Verlet run ...
  Unit style    : real
  Current step  : 14000
  Time step     : 1
Per MPI rank memory allocation (min/avg/max) = 4.577 | 4.578 | 4.579 Mbytes
Step Temp E_pair E_mol TotEng Press Volume Lx Ly Lz S/CPU 
   14000    307.22844    -10513.67            0   -9598.7958    11232.824    786.56384     9.230913     9.230913     9.230913            0 
   14100    313.14006   -10529.983            0   -9597.5055   -11367.475    787.70305    9.2353674    9.2353674    9.2353674     51.31516 
   14200     303.8718   -10501.692            0   -9596.8135    11031.689    788.47394    9.2383791    9.2383791    9.2383791    69.052202 
   14300     299.3687   -10487.617            0   -9596.1479    -14443.99    789.36479    9.2418571    9.2418571    9.2418571    54.585319 
   14400    307.00875   -10510.654            0   -9596.4339    534.51648    789.80368    9.2435697    9.2435697    9.2435697    48.119066 
   14500    296.73284   -10479.852            0   -9596.2325    4092.5007    789.94276    9.2441122    9.2441122    9.2441122    48.255881 
   14600    297.47407   -10481.075            0    -9595.248   -10975.307    789.81562    9.2436162    9.2436162    9.2436162    53.902593 
   14700    286.82789    -10449.28            0   -9595.1553    3130.5308    789.15799      9.24105      9.24105      9.24105    70.881064 
   14800     291.5058    -10464.22            0   -9596.1651   -11697.551     788.2203    9.2373884    9.2373884    9.2373884    47.936724 
   14900    309.43225   -10520.116            0   -9598.6799   -8995.5217    786.59458    9.2310333    9.2310333    9.2310333    52.147212 
   15000    305.69477   -10509.842            0   -9599.5353    3604.5726    784.76401    9.2238669    9.2238669    9.2238669    53.799344 
Loop time of 18.5079 on 16 procs for 1000 steps with 1000 atoms

Performance: 4.668 ns/day, 5.141 hours/ns, 54.031 timesteps/s
94.9% CPU use with 16 MPI tasks x no OpenMP threads

MPI task timing breakdown:
Section |  min time  |  avg time  |  max time  |%varavg| %total
---------------------------------------------------------------
Pair    | 2.269      | 2.4421     | 2.6421     |   7.0 | 13.20
Neigh   | 0.76539    | 0.81397    | 0.86872    |   3.0 |  4.40
Comm    | 0.71129    | 0.96554    | 1.1867     |  13.6 |  5.22
Output  | 10.204     | 10.46      | 14.242     |  30.2 | 56.51
Modify  | 0.035189   | 3.8183     | 4.0738     |  50.0 | 20.63
Other   |            | 0.008288   |            |       |  0.04

Nlocal:    62.5 ave 69 max 56 min
Histogram: 1 1 2 2 2 1 4 2 0 1
Nghost:    1853.62 ave 1864 max 1839 min
Histogram: 1 1 2 0 1 0 5 2 2 2
Neighs:    0 ave 0 max 0 min
Histogram: 16 0 0 0 0 0 0 0 0 0
FullNghs:  18818.9 ave 20977 max 16713 min
Histogram: 1 1 2 1 3 2 3 2 0 1

Total # of neighbors = 301102
Ave neighs/atom = 301.102
Neighbor list builds = 1000
Dangerous builds not checked
Setting up Verlet run ...
  Unit style    : real
  Current step  : 15000
  Time step     : 1
Per MPI rank memory allocation (min/avg/max) = 4.577 | 4.578 | 4.579 Mbytes
Step Temp E_pair E_mol TotEng Press Volume Lx Ly Lz S/CPU 
   15000    305.69477   -10509.842            0   -9599.5353    3604.5726    784.76401    9.2238669    9.2238669    9.2238669            0 
   15100    300.97857   -10495.739            0   -9599.4762    4417.7455    783.18251    9.2176666    9.2176666    9.2176666    35.943822 
   15200    305.10344   -10510.204            0   -9601.6579    10855.555     781.4496     9.210863     9.210863     9.210863    51.488038 
   15300    307.23985   -10518.031            0   -9603.1232    13702.624    780.10045    9.2055592    9.2055592    9.2055592    68.214648 
   15400     300.5611   -10499.328            0   -9604.3079    9529.6876    779.32588    9.2025114    9.2025114    9.2025114     55.48741 
   15500    301.41656   -10503.542            0   -9605.9754    16017.408    778.70594    9.2000707    9.2000707    9.2000707    51.323371 
   15600     297.9375   -10495.937            0   -9608.7297   -1414.8086    778.41057    9.1989073    9.1989073    9.1989073    60.949969 
   15700    306.00031   -10521.137            0   -9609.9203   -4049.1121    778.35947     9.198706     9.198706     9.198706      51.0781 
   15800    303.91938   -10516.449            0   -9611.4286   -5708.7274    778.23754    9.1982256    9.1982256    9.1982256    61.540525 
   15900    303.02942   -10516.344            0   -9613.9742   -1030.9282    778.14341    9.1978548    9.1978548    9.1978548    51.365107 
   16000    298.25658   -10504.039            0   -9615.8817     7531.708    778.52342    9.1993518    9.1993518    9.1993518    47.015586 
Loop time of 19.2382 on 16 procs for 1000 steps with 1000 atoms

Performance: 4.491 ns/day, 5.344 hours/ns, 51.980 timesteps/s
94.9% CPU use with 16 MPI tasks x no OpenMP threads

MPI task timing breakdown:
Section |  min time  |  avg time  |  max time  |%varavg| %total
---------------------------------------------------------------
Pair    | 2.2684     | 2.4124     | 2.6435     |   5.6 | 12.54
Neigh   | 0.75987    | 0.79697    | 0.85639    |   2.6 |  4.14
Comm    | 0.77737    | 1.0674     | 1.249      |  10.4 |  5.55
Output  | 9.9238     | 10.238     | 14.899     |  37.6 | 53.22
Modify  | 0.053726   | 4.7153     | 5.0294     |  55.4 | 24.51
Other   |            | 0.008264   |            |       |  0.04

Nlocal:    62.5 ave 67 max 55 min
Histogram: 2 0 0 1 1 2 2 3 3 2
Nghost:    1879.38 ave 1905 max 1858 min
Histogram: 2 2 1 0 4 3 1 2 0 1
Neighs:    0 ave 0 max 0 min
Histogram: 16 0 0 0 0 0 0 0 0 0
FullNghs:  18953.4 ave 20545 max 16515 min
Histogram: 1 1 0 1 1 3 3 3 1 2

Total # of neighbors = 303254
Ave neighs/atom = 303.254
Neighbor list builds = 1000
Dangerous builds not checked
Setting up Verlet run ...
  Unit style    : real
  Current step  : 16000
  Time step     : 1
Per MPI rank memory allocation (min/avg/max) = 4.577 | 4.578 | 4.579 Mbytes
Step Temp E_pair E_mol TotEng Press Volume Lx Ly Lz S/CPU 
   16000    298.25658   -10504.039            0   -9615.8817     7531.708    778.52342    9.1993518    9.1993518    9.1993518            0 
   16100    297.03079   -10502.267            0   -9617.7597   -3891.9053    778.89685    9.2008224    9.2008224    9.2008224    48.336781 
   16200    300.13484   -10513.859            0   -9620.1087    5130.8482    778.96532     9.201092     9.201092     9.201092    55.157087 
   16300    299.74263   -10515.368            0   -9622.7856    6725.4276    778.90427    9.2008517    9.2008517    9.2008517    69.973876 
   16400    274.98627    -10441.51            0   -9622.6476    7297.1054    778.93931    9.2009896    9.2009896    9.2009896     53.17602 
   16500    294.92841   -10502.408            0   -9624.1614    9205.8519    779.24513    9.2021936    9.2021936    9.2021936    63.278356 
   16600    291.32028   -10490.315            0   -9622.8131    -1649.907    779.93227    9.2048976    9.2048976    9.2048976    51.191633 
   16700    288.32933   -10479.324            0   -9620.7289    2838.7999    781.01739    9.2091646    9.2091646    9.2091646    58.607593 
   16800    288.73581    -10475.44            0   -9615.6344   -4668.1312    782.53477    9.2151246    9.2151246    9.2151246    57.818211 
   16900    295.25605   -10489.356            0   -9610.1341    10920.595    784.01793    9.2209429    9.2209429    9.2209429    53.433363 
   17000    308.91634   -10521.418            0    -9601.518   -3163.1496    785.71079    9.2275748    9.2275748    9.2275748    61.806112 
Loop time of 17.6505 on 16 procs for 1000 steps with 1000 atoms

Performance: 4.895 ns/day, 4.903 hours/ns, 56.656 timesteps/s
95.0% CPU use with 16 MPI tasks x no OpenMP threads

MPI task timing breakdown:
Section |  min time  |  avg time  |  max time  |%varavg| %total
---------------------------------------------------------------
Pair    | 2.3229     | 2.4047     | 2.6988     |   5.6 | 13.62
Neigh   | 0.76719    | 0.79722    | 0.86969    |   2.6 |  4.52
Comm    | 0.67982    | 1.0463     | 1.1495     |  10.5 |  5.93
Output  | 8.9533     | 9.2317     | 13.356     |  35.1 | 52.30
Modify  | 0.037121   | 4.1624     | 4.4412     |  52.2 | 23.58
Other   |            | 0.008183   |            |       |  0.05

Nlocal:    62.5 ave 68 max 57 min
Histogram: 1 0 2 4 2 2 1 2 0 2
Nghost:    1850.31 ave 1872 max 1831 min
Histogram: 3 2 1 2 0 1 2 2 1 2
Neighs:    0 ave 0 max 0 min
Histogram: 16 0 0 0 0 0 0 0 0 0
FullNghs:  18785.5 ave 20588 max 16937 min
Histogram: 1 0 2 3 2 2 3 1 0 2

Total # of neighbors = 300568
Ave neighs/atom = 300.568
Neighbor list builds = 1000
Dangerous builds not checked
Setting up Verlet run ...
  Unit style    : real
  Current step  : 17000
  Time step     : 1
Per MPI rank memory allocation (min/avg/max) = 4.577 | 4.578 | 4.579 Mbytes
Step Temp E_pair E_mol TotEng Press Volume Lx Ly Lz S/CPU 
   17000    308.91634   -10521.418            0    -9601.518   -3163.1496    785.71079    9.2275748    9.2275748    9.2275748            0 
   17100    300.72803   -10487.281            0   -9591.7642   -5989.2765    787.46794    9.2344484    9.2344484    9.2344484    52.168221 
   17200    296.88048   -10465.583            0   -9581.5235   -22079.063    788.99439    9.2404113    9.2404113    9.2404113    61.256926 
   17300    305.32315   -10481.785            0   -9572.5845   -839.64291     789.7262    9.2432674    9.2432674    9.2432674    63.436872 
   17400    312.27496   -10494.001            0   -9564.0995    10526.539    790.03044    9.2444542    9.2444542    9.2444542    56.297488 
   17500    295.89414   -10437.986            0   -9556.8636    2361.1713    790.39255    9.2458664    9.2458664    9.2458664    57.670577 
   17600    317.71175   -10497.138            0   -9551.0467   -24173.779    790.46681    9.2461559    9.2461559    9.2461559    51.726266 
   17700    302.92202   -10447.995            0    -9545.945   -4596.9491    789.71825    9.2432363    9.2432363    9.2432363    46.191936 
   17800    310.34241    -10467.07            0   -9542.9231   -11994.817    788.77195    9.2395429    9.2395429    9.2395429    60.819739 
   17900    299.02053   -10430.058            0   -9539.6262    6063.6312    787.41719      9.23425      9.23425      9.23425    45.699318 
   18000    313.31268   -10473.969            0    -9540.977    11483.685    785.98035    9.2286299    9.2286299    9.2286299    69.325964 
Loop time of 18.009 on 16 procs for 1000 steps with 1000 atoms

Performance: 4.798 ns/day, 5.003 hours/ns, 55.528 timesteps/s
94.9% CPU use with 16 MPI tasks x no OpenMP threads

MPI task timing breakdown:
Section |  min time  |  avg time  |  max time  |%varavg| %total
---------------------------------------------------------------
Pair    | 2.233      | 2.368      | 2.5472     |   5.1 | 13.15
Neigh   | 0.75704    | 0.79566    | 0.84552    |   2.8 |  4.42
Comm    | 0.77926    | 1.009      | 1.183      |  10.3 |  5.60
Output  | 9.2754     | 9.5594     | 13.767     |  35.1 | 53.08
Modify  | 0.060107   | 4.2688     | 4.5527     |  52.6 | 23.70
Other   |            | 0.008169   |            |       |  0.05

Nlocal:    62.5 ave 65 max 60 min
Histogram: 2 0 4 0 1 0 3 0 5 1
Nghost:    1858.94 ave 1872 max 1844 min
Histogram: 1 3 1 1 0 2 3 1 2 2
Neighs:    0 ave 0 max 0 min
Histogram: 16 0 0 0 0 0 0 0 0 0
FullNghs:  18779.2 ave 19713 max 17975 min
Histogram: 2 2 2 0 1 3 2 2 1 1

Total # of neighbors = 300468
Ave neighs/atom = 300.468
Neighbor list builds = 1000
Dangerous builds not checked
Setting up Verlet run ...
  Unit style    : real
  Current step  : 18000
  Time step     : 1
Per MPI rank memory allocation (min/avg/max) = 4.577 | 4.578 | 4.579 Mbytes
Step Temp E_pair E_mol TotEng Press Volume Lx Ly Lz S/CPU 
   18000    313.31268   -10473.969            0    -9540.977    11483.685    785.98035    9.2286299    9.2286299    9.2286299            0 
   18100    300.67303   -10437.594            0    -9542.241    16668.793    784.68445    9.2235552    9.2235552    9.2235552    39.908908 
   18200    310.44586   -10471.243            0   -9546.7887    1356.5767    783.89558    9.2204632    9.2204632    9.2204632     45.57536 
   18300    307.97488   -10469.312            0   -9552.2153    3716.4455    783.43097    9.2186412    9.2186412    9.2186412     59.60827 
   18400    299.41172   -10453.193            0   -9561.5958    10565.313    782.92403    9.2166524    9.2166524    9.2166524    52.013327 
   18500    310.75946   -10502.091            0   -9576.7028   -1609.0641    782.94085    9.2167184    9.2167184    9.2167184    53.551109 
   18600    303.68445   -10498.347            0   -9594.0261   -6473.2077    783.39245    9.2184901    9.2184901    9.2184901    60.871962 
   18700    313.20345   -10545.754            0   -9613.0878    5421.6392    783.81072    9.2201305    9.2201305    9.2201305    39.273879 
   18800    292.06539   -10494.261            0   -9624.5402    5548.6365    784.73999    9.2237728    9.2237728    9.2237728    56.338168 
   18900    297.98537   -10519.116            0   -9631.7669   -9020.7684    786.24856    9.2296795    9.2296795    9.2296795    54.700608 
   19000    295.61326   -10516.022            0   -9635.7363   -991.09012    787.83255    9.2358735    9.2358735    9.2358735    70.223805 
Loop time of 19.3836 on 16 procs for 1000 steps with 1000 atoms

Performance: 4.457 ns/day, 5.384 hours/ns, 51.590 timesteps/s
94.8% CPU use with 16 MPI tasks x no OpenMP threads

MPI task timing breakdown:
Section |  min time  |  avg time  |  max time  |%varavg| %total
---------------------------------------------------------------
Pair    | 2.2861     | 2.4489     | 2.6214     |   5.7 | 12.63
Neigh   | 0.7611     | 0.8108     | 0.84364    |   2.7 |  4.18
Comm    | 0.79177    | 0.99665    | 1.2103     |  11.2 |  5.14
Output  | 10.086     | 10.401     | 15.071     |  37.4 | 53.66
Modify  | 0.047268   | 4.7179     | 5.0328     |  55.5 | 24.34
Other   |            | 0.008283   |            |       |  0.04

Nlocal:    62.5 ave 69 max 57 min
Histogram: 2 2 0 3 1 2 2 3 0 1
Nghost:    1856.88 ave 1872 max 1839 min
Histogram: 1 0 1 5 0 1 2 3 2 1
Neighs:    0 ave 0 max 0 min
Histogram: 16 0 0 0 0 0 0 0 0 0
FullNghs:  18742.6 ave 20712 max 16921 min
Histogram: 2 1 2 1 2 2 2 2 1 1

Total # of neighbors = 299882
Ave neighs/atom = 299.882
Neighbor list builds = 1000
Dangerous builds not checked
Setting up Verlet run ...
  Unit style    : real
  Current step  : 19000
  Time step     : 1
Per MPI rank memory allocation (min/avg/max) = 4.577 | 4.578 | 4.579 Mbytes
Step Temp E_pair E_mol TotEng Press Volume Lx Ly Lz S/CPU 
   19000    295.61326   -10516.022            0   -9635.7363   -991.09012    787.83255    9.2358735    9.2358735    9.2358735            0 
   19100    296.52242   -10519.102            0    -9636.109    4419.0543    789.38794    9.2419475    9.2419475    9.2419475    49.550928 
   19200     280.2833   -10468.576            0   -9633.9406   -8566.0123     790.7252    9.2471633    9.2471633    9.2471633    67.043517 
   19300    289.49693   -10494.646            0   -9632.5735   -10427.779    791.30032    9.2494046    9.2494046    9.2494046    56.268503 
   19400    291.60272   -10498.596            0   -9630.2528    -8165.347    791.13886    9.2487755    9.2487755    9.2487755    67.225762 
   19500    297.11778   -10511.468            0   -9626.7024    793.00407    790.26276    9.2453603    9.2453603    9.2453603    52.371027 
   19600    304.68901   -10529.933            0   -9622.6209   -16069.855    789.02679    9.2405378    9.2405378    9.2405378    47.623325 
   19700    293.39391   -10489.763            0   -9616.0864   -2388.0874     787.1585    9.2332387    9.2332387    9.2332387    67.045933 
   19800    304.07325   -10515.014            0   -9609.5356    5467.7295    785.21962    9.2256516    9.2256516    9.2256516    53.727697 
   19900    299.48674   -10493.257            0   -9601.4369    4700.0624    783.47715    9.2188223    9.2188223    9.2188223    62.806633 
   20000    297.56112   -10479.734            0   -9593.6476    3563.0635    781.91003    9.2126717    9.2126717    9.2126717    62.173597 
Loop time of 17.337 on 16 procs for 1000 steps with 1000 atoms

Performance: 4.984 ns/day, 4.816 hours/ns, 57.680 timesteps/s
95.0% CPU use with 16 MPI tasks x no OpenMP threads

MPI task timing breakdown:
Section |  min time  |  avg time  |  max time  |%varavg| %total
---------------------------------------------------------------
Pair    | 2.2635     | 2.3924     | 2.6975     |   6.7 | 13.80
Neigh   | 0.77285    | 0.80399    | 0.87615    |   3.1 |  4.64
Comm    | 0.62735    | 1.0044     | 1.1637     |  13.0 |  5.79
Output  | 8.4982     | 8.7868     | 13.062     |  37.2 | 50.68
Modify  | 0.065066   | 4.3412     | 4.63       |  53.0 | 25.04
Other   |            | 0.008207   |            |       |  0.05

Nlocal:    62.5 ave 69 max 56 min
Histogram: 1 1 1 4 2 1 2 2 0 2
Nghost:    1862.94 ave 1882 max 1844 min
Histogram: 3 4 0 1 0 0 1 1 2 4
Neighs:    0 ave 0 max 0 min
Histogram: 16 0 0 0 0 0 0 0 0 0
FullNghs:  18875.2 ave 21164 max 16735 min
Histogram: 1 1 3 3 1 1 2 2 1 1

Total # of neighbors = 302004
Ave neighs/atom = 302.004
Neighbor list builds = 1000
Dangerous builds not checked
Setting up Verlet run ...
  Unit style    : real
  Current step  : 20000
  Time step     : 1
Per MPI rank memory allocation (min/avg/max) = 4.577 | 4.578 | 4.579 Mbytes
Step Temp E_pair E_mol TotEng Press Volume Lx Ly Lz S/CPU 
   20000    297.56112   -10479.734            0   -9593.6476    3563.0635    781.91003    9.2126717    9.2126717    9.2126717            0 
   20100    298.34119   -10473.113            0   -9584.7037   -8471.0855    780.58721    9.2074735    9.2074735    9.2074735    51.943381 
   20200    299.89542   -10469.712            0   -9576.6745     15426.64    779.49639    9.2031825    9.2031825    9.2031825    57.964305 
   20300    286.15532   -10421.307            0   -9569.1853    15787.286    779.38253    9.2027344    9.2027344    9.2027344    56.429015 
   20400    297.52563   -10448.994            0   -9563.0135    14726.495    780.60442    9.2075412    9.2075412    9.2075412    46.478122 
   20500    302.34532   -10458.018            0   -9557.6858    6587.7204    783.21917    9.2178104    9.2178104    9.2178104    54.856078 
   20600    300.72174   -10449.073            0   -9553.5752    15287.474    786.92445    9.2323235    9.2323235    9.2323235    63.461685 
   20700    306.53057   -10462.427            0   -9549.6312   -1966.4856    791.37846    9.2497091    9.2497091    9.2497091    49.338504 
   20800    306.54794   -10457.916            0   -9545.0689   -11269.192    795.41159    9.2653957    9.2653957    9.2653957      60.1578 
   20900    301.12334   -10437.887            0   -9541.1934    -29060.45    798.46097    9.2772209    9.2772209    9.2772209     48.31944 
   21000    295.37537   -10418.516            0   -9538.9389    -20989.22     799.9826    9.2831104    9.2831104    9.2831104    44.636739 
Loop time of 18.9718 on 16 procs for 1000 steps with 1000 atoms

Performance: 4.554 ns/day, 5.270 hours/ns, 52.710 timesteps/s
94.9% CPU use with 16 MPI tasks x no OpenMP threads

MPI task timing breakdown:
Section |  min time  |  avg time  |  max time  |%varavg| %total
---------------------------------------------------------------
Pair    | 2.2768     | 2.465      | 2.7571     |   6.5 | 12.99
Neigh   | 0.77913    | 0.81764    | 0.89725    |   3.1 |  4.31
Comm    | 0.59287    | 0.96381    | 1.1911     |  13.0 |  5.08
Output  | 9.8801     | 10.182     | 14.664     |  36.3 | 53.67
Modify  | 0.051889   | 4.5348     | 4.8405     |  54.4 | 23.90
Other   |            | 0.008344   |            |       |  0.04

Nlocal:    62.5 ave 68 max 58 min
Histogram: 1 1 2 3 1 1 5 0 0 2
Nghost:    1834.06 ave 1843 max 1816 min
Histogram: 2 1 0 0 0 1 2 3 4 3
Neighs:    0 ave 0 max 0 min
Histogram: 16 0 0 0 0 0 0 0 0 0
FullNghs:  18426.9 ave 20107 max 16988 min
Histogram: 1 2 1 3 2 1 4 0 1 1

Total # of neighbors = 294830
Ave neighs/atom = 294.83
Neighbor list builds = 1000
Dangerous builds not checked
Setting up Verlet run ...
  Unit style    : real
  Current step  : 21000
  Time step     : 1
Per MPI rank memory allocation (min/avg/max) = 4.577 | 4.578 | 4.579 Mbytes
Step Temp E_pair E_mol TotEng Press Volume Lx Ly Lz S/CPU 
   21000    295.37537   -10418.516            0   -9538.9389    -20989.22     799.9826    9.2831104    9.2831104    9.2831104            0 
   21100     305.7522   -10449.011            0   -9538.5333   -25421.604    799.60807    9.2816614    9.2816614    9.2816614    64.010299 
   21200    295.55868   -10416.613            0   -9536.4898   -21123.732     797.6433     9.274053     9.274053     9.274053    52.923029 
   21300    303.34242   -10439.522            0     -9536.22   -23239.136    794.43831    9.2616151    9.2616151    9.2616151    55.688339 
   21400    306.25701   -10448.083            0   -9536.1021   -17036.068    790.01403    9.2443902    9.2443902    9.2443902    48.473369 
   21500    309.00454   -10456.295            0   -9536.1319   -7177.4208     785.0047    9.2248098    9.2248098    9.2248098    61.428818 
   21600    303.11842   -10438.469            0   -9535.8345    4298.7907    780.17567    9.2058551    9.2058551    9.2058551    54.255663 
   21700    309.66747   -10460.174            0   -9538.0372    13203.988    776.28541    9.1905283    9.1905283    9.1905283    58.651056 
   21800    319.07141   -10492.854            0   -9542.7134     22689.23    773.75243    9.1805213    9.1805213    9.1805213    49.313211 
   21900    314.65849    -10489.78            0   -9552.7806    24404.081    772.84263    9.1769216    9.1769216    9.1769216    56.880726 
   22000    310.18839   -10496.547            0   -9572.8584    14895.655    773.54868    9.1797154    9.1797154    9.1797154    62.636716 
Loop time of 17.8689 on 16 procs for 1000 steps with 1000 atoms

Performance: 4.835 ns/day, 4.964 hours/ns, 55.963 timesteps/s
94.9% CPU use with 16 MPI tasks x no OpenMP threads

MPI task timing breakdown:
Section |  min time  |  avg time  |  max time  |%varavg| %total
---------------------------------------------------------------
Pair    | 2.2938     | 2.3977     | 2.6035     |   5.5 | 13.42
Neigh   | 0.76718    | 0.79806    | 0.84918    |   2.4 |  4.47
Comm    | 0.79002    | 1.0458     | 1.1811     |  10.3 |  5.85
Output  | 9.0631     | 9.3469     | 13.554     |  35.5 | 52.31
Modify  | 0.064318   | 4.2723     | 4.5622     |  52.6 | 23.91
Other   |            | 0.008215   |            |       |  0.05

Nlocal:    62.5 ave 68 max 57 min
Histogram: 2 1 3 1 1 1 3 1 0 3
Nghost:    1875.31 ave 1888 max 1863 min
Histogram: 2 2 3 0 1 1 0 0 6 1
Neighs:    0 ave 0 max 0 min
Histogram: 16 0 0 0 0 0 0 0 0 0
FullNghs:  19064.9 ave 20914 max 17379 min
Histogram: 2 1 3 1 1 2 3 0 1 2

Total # of neighbors = 305038
Ave neighs/atom = 305.038
Neighbor list builds = 1000
Dangerous builds not checked
Setting up Verlet run ...
  Unit style    : real
  Current step  : 22000
  Time step     : 1
Per MPI rank memory allocation (min/avg/max) = 4.577 | 4.578 | 4.579 Mbytes
Step Temp E_pair E_mol TotEng Press Volume Lx Ly Lz S/CPU 
   22000    310.18839   -10496.547            0   -9572.8584    14895.655    773.54868    9.1797154    9.1797154    9.1797154            0 
   22100    292.89486   -10472.731            0   -9600.5401    13838.477    775.31988    9.1867163    9.1867163    9.1867163    51.355333 
   22200    299.69286   -10513.053            0   -9620.6185    2494.1021    777.55873    9.1955505    9.1955505    9.1955505    53.498619 
   22300    298.11144   -10518.712            0   -9630.9872   -8006.4448    779.83919    9.2045314    9.2045314    9.2045314    47.648446 
   22400    287.42798   -10493.598            0   -9637.6868   -3286.6933    781.80892    9.2122746    9.2122746    9.2122746    58.571939 
   22500    285.75537   -10492.468            0   -9641.5375   -11240.868     783.6434    9.2194743    9.2194743    9.2194743    48.734799 
   22600    295.07033   -10522.653            0   -9643.9836   -2470.2411    785.17503    9.2254769    9.2254769    9.2254769    69.089008 
   22700    289.42698   -10506.854            0   -9644.9898   -5860.1991    786.47972    9.2305839    9.2305839    9.2305839    53.573642 
   22800    283.22515   -10488.971            0   -9645.5751    -8665.694    787.37684    9.2340923    9.2340923    9.2340923    48.908741 
   22900    286.76264   -10499.357            0    -9645.427   -1103.8293    787.70753    9.2353849    9.2353849    9.2353849    63.111754 
   23000    294.40755   -10519.471            0   -9642.7758   -12406.297     787.4696    9.2344549    9.2344549    9.2344549    46.708445 
Loop time of 18.7584 on 16 procs for 1000 steps with 1000 atoms

Performance: 4.606 ns/day, 5.211 hours/ns, 53.309 timesteps/s
94.9% CPU use with 16 MPI tasks x no OpenMP threads

MPI task timing breakdown:
Section |  min time  |  avg time  |  max time  |%varavg| %total
---------------------------------------------------------------
Pair    | 2.265      | 2.3748     | 2.5153     |   4.7 | 12.66
Neigh   | 0.74867    | 0.79183    | 0.83399    |   2.2 |  4.22
Comm    | 0.85498    | 1.0375     | 1.1906     |   8.5 |  5.53
Output  | 9.3527     | 9.689      | 14.508     |  40.0 | 51.65
Modify  | 0.037608   | 4.8571     | 5.1935     |  56.5 | 25.89
Other   |            | 0.008169   |            |       |  0.04

Nlocal:    62.5 ave 69 max 58 min
Histogram: 2 2 2 4 2 1 0 0 1 2
Nghost:    1854.12 ave 1872 max 1834 min
Histogram: 2 0 1 2 1 4 1 3 1 1
Neighs:    0 ave 0 max 0 min
Histogram: 16 0 0 0 0 0 0 0 0 0
FullNghs:  18746.5 ave 20725 max 17329 min
Histogram: 2 2 2 3 3 1 0 1 0 2

Total # of neighbors = 299944
Ave neighs/atom = 299.944
Neighbor list builds = 1000
Dangerous builds not checked
Setting up Verlet run ...
  Unit style    : real
  Current step  : 23000
  Time step     : 1
Per MPI rank memory allocation (min/avg/max) = 4.577 | 4.578 | 4.579 Mbytes
Step Temp E_pair E_mol TotEng Press Volume Lx Ly Lz S/CPU 
   23000    294.40755   -10519.471            0   -9642.7758   -12406.297     787.4696    9.2344549    9.2344549    9.2344549            0 
   23100    297.66499   -10524.542            0   -9638.1465   -16696.241    786.48015    9.2305856    9.2305856    9.2305856    53.922974 
   23200     298.2746   -10521.149            0   -9632.9381   -8432.1349    784.96653    9.2246603    9.2246603    9.2246603    63.964579 
   23300    291.87837    -10494.93            0   -9625.7662    7730.7648    783.28924    9.2180853    9.2180853    9.2180853    44.753148 
   23400     297.0793   -10503.936            0   -9619.2842   -13295.267     781.7234    9.2119386    9.2119386    9.2119386    50.604778 
   23500    298.46063   -10501.083            0   -9612.3181    13350.328    779.87491     9.204672     9.204672     9.204672    51.263268 
   23600    298.87637   -10494.868            0   -9604.8652     9826.928    778.35529    9.1986895    9.1986895    9.1986895    50.530577 
   23700    301.94196   -10498.583            0   -9599.4512    4456.8079    777.34833     9.194721     9.194721     9.194721    59.189783 
   23800    306.93928   -10507.329            0   -9593.3159    5992.9024    776.74226    9.1923308    9.1923308    9.1923308    60.566493 
   23900    306.90463   -10502.607            0   -9588.6976     8528.638    776.63464    9.1919062    9.1919062    9.1919062    54.290273 
   24000    312.99551   -10516.587            0   -9584.5397   -4479.4114    776.98994    9.1933077    9.1933077    9.1933077    46.104891 
Loop time of 18.9096 on 16 procs for 1000 steps with 1000 atoms

Performance: 4.569 ns/day, 5.253 hours/ns, 52.883 timesteps/s
94.9% CPU use with 16 MPI tasks x no OpenMP threads

MPI task timing breakdown:
Section |  min time  |  avg time  |  max time  |%varavg| %total
---------------------------------------------------------------
Pair    | 2.2071     | 2.3853     | 2.5313     |   4.6 | 12.61
Neigh   | 0.74327    | 0.79141    | 0.83013    |   2.5 |  4.19
Comm    | 0.87451    | 1.06       | 1.2868     |   8.9 |  5.61
Output  | 10.122     | 10.406     | 14.629     |  33.8 | 55.03
Modify  | 0.03523    | 4.2584     | 4.5432     |  52.8 | 22.52
Other   |            | 0.008176   |            |       |  0.04

Nlocal:    62.5 ave 69 max 59 min
Histogram: 1 1 5 4 0 3 0 0 1 1
Nghost:    1865.5 ave 1881 max 1848 min
Histogram: 2 0 2 1 0 3 5 1 0 2
Neighs:    0 ave 0 max 0 min
Histogram: 16 0 0 0 0 0 0 0 0 0
FullNghs:  18986.4 ave 20966 max 17842 min
Histogram: 2 1 4 4 1 2 0 0 1 1

Total # of neighbors = 303782
Ave neighs/atom = 303.782
Neighbor list builds = 1000
Dangerous builds not checked
Setting up Verlet run ...
  Unit style    : real
  Current step  : 24000
  Time step     : 1
Per MPI rank memory allocation (min/avg/max) = 4.577 | 4.578 | 4.579 Mbytes
Step Temp E_pair E_mol TotEng Press Volume Lx Ly Lz S/CPU 
   24000    312.99551   -10516.587            0   -9584.5397   -4479.4114    776.98994    9.1933077    9.1933077    9.1933077            0 
   24100    309.98318   -10505.511            0    -9582.434    20296.256    777.72174    9.1961931    9.1961931    9.1961931    68.120982 
   24200    313.22777   -10517.001            0   -9584.2626   -465.67911    779.14407    9.2017958    9.2017958    9.2017958    53.402816 
   24300    305.20066   -10495.196            0   -9586.3609     3289.702    780.54581    9.2073107    9.2073107    9.2073107    59.988569 
   24400    298.51296   -10480.099            0   -9591.1788   -8669.2335    781.72239    9.2119347    9.2119347    9.2119347     51.63014 
   24500    307.49307   -10514.136            0   -9598.4742   -7209.8667    782.45607    9.2148157    9.2148157    9.2148157    47.249236 
   24600    309.81105   -10532.056            0   -9609.4914   -4325.1421    782.75428    9.2159862    9.2159862    9.2159862    49.043893 
   24700    297.72203   -10506.756            0   -9620.1911   -4759.0703    782.58019    9.2153029    9.2153029    9.2153029    66.119748 
   24800    289.34709   -10493.091            0   -9631.4647   -19019.285    782.09512    9.2133986    9.2133986    9.2133986     50.31214 
   24900    289.90955   -10504.275            0    -9640.974   -15436.368     781.2878    9.2102273    9.2102273    9.2102273    57.053713 
   25000    301.86168   -10548.536            0   -9649.6438    4194.4499    779.81754    9.2044463    9.2044463    9.2044463    70.986626 
Loop time of 17.7613 on 16 procs for 1000 steps with 1000 atoms

Performance: 4.865 ns/day, 4.934 hours/ns, 56.302 timesteps/s
94.9% CPU use with 16 MPI tasks x no OpenMP threads

MPI task timing breakdown:
Section |  min time  |  avg time  |  max time  |%varavg| %total
---------------------------------------------------------------
Pair    | 2.2999     | 2.4277     | 2.6521     |   6.3 | 13.67
Neigh   | 0.76425    | 0.80351    | 0.86988    |   3.1 |  4.52
Comm    | 0.74605    | 1.0278     | 1.1946     |  12.4 |  5.79
Output  | 8.9638     | 9.2454     | 13.417     |  35.4 | 52.05
Modify  | 0.076667   | 4.2487     | 4.53       |  52.3 | 23.92
Other   |            | 0.008219   |            |       |  0.05

Nlocal:    62.5 ave 68 max 59 min
Histogram: 2 3 2 3 0 2 1 1 1 1
Nghost:    1866.94 ave 1884 max 1852 min
Histogram: 2 1 1 2 3 3 2 0 0 2
Neighs:    0 ave 0 max 0 min
Histogram: 16 0 0 0 0 0 0 0 0 0
FullNghs:  18930.4 ave 20606 max 17815 min
Histogram: 3 2 2 3 0 1 2 1 1 1

Total # of neighbors = 302886
Ave neighs/atom = 302.886
Neighbor list builds = 1000
Dangerous builds not checked
Setting up Verlet run ...
  Unit style    : real
  Current step  : 25000
  Time step     : 1
Per MPI rank memory allocation (min/avg/max) = 4.577 | 4.578 | 4.579 Mbytes
Step Temp E_pair E_mol TotEng Press Volume Lx Ly Lz S/CPU 
   25000    301.86168   -10548.536            0   -9649.6438    4194.4499    779.81754    9.2044463    9.2044463    9.2044463            0 
   25100    296.47263   -10536.798            0    -9653.953    5263.9808    778.29097    9.1984361    9.1984361    9.1984361    45.890799 
   25200    300.28824    -10552.08            0   -9657.8726    -3753.435    776.79349    9.1925329    9.1925329    9.1925329    51.327788 
   25300    288.03643   -10516.533            0   -9658.8099    16134.881     775.4829    9.1873602    9.1873602    9.1873602     53.37213 
   25400    283.00578   -10502.853            0   -9660.1097     10532.42    775.40906    9.1870686    9.1870686    9.1870686    51.298934 
   25500    297.93773   -10546.572            0   -9659.3648    10251.791    775.96948    9.1892813    9.1892813    9.1892813    48.748544 
   25600    294.98965   -10535.572            0   -9657.1431     6852.324    777.07395    9.1936391    9.1936391    9.1936391    51.556609 
   25700    289.36056   -10515.911            0   -9654.2443   -2498.8673    778.71632    9.2001115    9.2001115    9.2001115    53.151529 
   25800    288.09972   -10507.341            0   -9649.4295     3511.471    780.59107    9.2074886    9.2074886    9.2074886     56.90384 
   25900    287.46495   -10496.722            0   -9640.7003    7712.4656    782.38071    9.2145199    9.2145199    9.2145199    62.980949 
   26000    285.67279   -10479.402            0   -9628.7174    1146.7862    783.92435     9.220576     9.220576     9.220576    51.073791 
Loop time of 19.1258 on 16 procs for 1000 steps with 1000 atoms

Performance: 4.517 ns/day, 5.313 hours/ns, 52.285 timesteps/s
94.8% CPU use with 16 MPI tasks x no OpenMP threads

MPI task timing breakdown:
Section |  min time  |  avg time  |  max time  |%varavg| %total
---------------------------------------------------------------
Pair    | 2.372      | 2.4893     | 2.7406     |   5.6 | 13.02
Neigh   | 0.78128    | 0.81413    | 0.88568    |   2.6 |  4.26
Comm    | 0.68513    | 1.0071     | 1.1589     |  11.0 |  5.27
Output  | 10.448     | 10.72      | 14.753     |  31.8 | 56.05
Modify  | 0.052948   | 4.0863     | 4.3585     |  51.5 | 21.37
Other   |            | 0.008895   |            |       |  0.05

Nlocal:    62.5 ave 66 max 60 min
Histogram: 4 1 0 2 0 4 3 0 1 1
Nghost:    1851.44 ave 1863 max 1839 min
Histogram: 2 1 1 1 3 1 2 2 1 2
Neighs:    0 ave 0 max 0 min
Histogram: 16 0 0 0 0 0 0 0 0 0
FullNghs:  18848.4 ave 19899 max 17837 min
Histogram: 4 0 1 1 0 4 1 3 0 2

Total # of neighbors = 301574
Ave neighs/atom = 301.574
Neighbor list builds = 1000
Dangerous builds not checked
Setting up Verlet run ...
  Unit style    : real
  Current step  : 26000
  Time step     : 1
Per MPI rank memory allocation (min/avg/max) = 4.577 | 4.578 | 4.579 Mbytes
Step Temp E_pair E_mol TotEng Press Volume Lx Ly Lz S/CPU 
   26000    285.67279   -10479.402            0   -9628.7174    1146.7862    783.92435     9.220576     9.220576     9.220576            0 
   26100    295.53171   -10492.793            0   -9612.7503   -1981.7839    784.97285     9.224685     9.224685     9.224685    57.540902 
   26200    303.51525   -10497.829            0   -9594.0121   -1460.8998    785.54128    9.2269111    9.2269111    9.2269111     61.81088 
   26300    310.33927   -10503.373            0    -9579.236   -2056.2611    785.67801    9.2274464    9.2274464    9.2274464    51.866819 
   26400    310.86851   -10495.748            0   -9570.0342    2221.8357    785.78928     9.227882     9.227882     9.227882    67.370861 
   26500    301.81448   -10464.769            0   -9566.0165   -14200.805    785.85319    9.2281322    9.2281322    9.2281322    43.459064 
   26600    313.68742   -10500.564            0   -9566.4565    4621.8267    785.68715    9.2274822    9.2274822    9.2274822    44.490381 
   26700    311.27085   -10494.555            0    -9567.644   -84.105836    785.60409     9.227157     9.227157     9.227157     52.48738 
   26800     315.1473   -10508.235            0     -9569.78   -21578.879    785.53355    9.2268809    9.2268809    9.2268809    58.226886 
   26900    306.04958   -10484.328            0    -9572.965    6520.7068    784.88223      9.22433      9.22433      9.22433    53.174242 
   27000    310.44966   -10502.435            0    -9577.969    10071.036    784.08813    9.2212181    9.2212181    9.2212181    69.119346 
Loop time of 18.2668 on 16 procs for 1000 steps with 1000 atoms

Performance: 4.730 ns/day, 5.074 hours/ns, 54.744 timesteps/s
94.9% CPU use with 16 MPI tasks x no OpenMP threads

MPI task timing breakdown:
Section |  min time  |  avg time  |  max time  |%varavg| %total
---------------------------------------------------------------
Pair    | 2.1266     | 2.3707     | 2.5073     |   6.7 | 12.98
Neigh   | 0.7402     | 0.79235    | 0.82934    |   2.5 |  4.34
Comm    | 0.88661    | 1.0406     | 1.3381     |  12.0 |  5.70
Output  | 9.562      | 9.8423     | 13.997     |  34.2 | 53.88
Modify  | 0.056674   | 4.2127     | 4.4934     |  52.3 | 23.06
Other   |            | 0.008155   |            |       |  0.04

Nlocal:    62.5 ave 68 max 57 min
Histogram: 3 0 1 1 2 4 0 2 1 2
Nghost:    1866 ave 1883 max 1851 min
Histogram: 2 0 2 3 1 3 3 0 1 1
Neighs:    0 ave 0 max 0 min
Histogram: 16 0 0 0 0 0 0 0 0 0
FullNghs:  18826.1 ave 20537 max 17121 min
Histogram: 3 0 1 2 1 4 0 2 1 2

Total # of neighbors = 301218
Ave neighs/atom = 301.218
Neighbor list builds = 1000
Dangerous builds not checked
Setting up Verlet run ...
  Unit style    : real
  Current step  : 27000
  Time step     : 1
Per MPI rank memory allocation (min/avg/max) = 4.577 | 4.578 | 4.579 Mbytes
Step Temp E_pair E_mol TotEng Press Volume Lx Ly Lz S/CPU 
   27000    310.44966   -10502.435            0    -9577.969    10071.036    784.08813    9.2212181    9.2212181    9.2212181            0 
   27100    299.14832    -10474.08            0    -9583.267    1597.4934    783.65257    9.2195103    9.2195103    9.2195103    59.848241 
   27200    303.12796   -10493.463            0      -9590.8    9687.5297    783.55325    9.2191208    9.2191208    9.2191208    57.253603 
   27300    305.78535   -10508.872            0   -9598.2953    1061.5689    783.70777    9.2197268    9.2197268    9.2197268    60.198467 
   27400    296.11879    -10487.99            0    -9606.199    3482.5897     783.9341    9.2206142    9.2206142    9.2206142    60.225719 
   27500    307.47099   -10531.126            0   -9615.5296   -10677.985    784.51884    9.2229062    9.2229062    9.2229062      59.1257 
   27600    300.24635   -10516.545            0   -9622.4624   -3140.8536     785.0334    9.2249222    9.2249222    9.2249222    63.841902 
   27700    297.59631   -10515.334            0   -9629.1429   -5175.0998    785.16776    9.2254485    9.2254485    9.2254485    51.940708 
   27800    291.90458   -10504.539            0   -9635.2971   -1834.9198    784.71878    9.2236897    9.2236897    9.2236897    64.713854 
   27900    292.36541   -10509.362            0   -9638.7478   -1925.5701    784.19647    9.2216428    9.2216428    9.2216428    46.313975 
   28000    290.21404   -10506.143            0   -9641.9348    2867.5886    783.34015     9.218285     9.218285     9.218285    61.614022 
Loop time of 17.2495 on 16 procs for 1000 steps with 1000 atoms

[...]
  666700    284.88481   -11509.443            0   -10661.104   -110.85345    737.37255    9.0343238    9.0343238    9.0343238    52.626019 
  666800    299.54465   -11554.117            0   -10662.124    459.91727    734.45326    9.0223857    9.0223857    9.0223857    56.102952 
  666900    298.46404    -11549.15            0   -10660.375    16859.723     731.9394    9.0120801    9.0120801    9.0120801    47.650518 
  667000    286.01794   -11508.085            0   -10656.373    34230.347    730.42357    9.0058545    9.0058545    9.0058545    55.876941 
  667100    295.37583   -11532.707            0   -10653.128    21713.586    730.40895    9.0057944    9.0057944    9.0057944    40.998325 
  667200    295.96021    -11531.65            0   -10650.331    20671.508    731.97734    9.0122358    9.0122358    9.0122358     47.95409 
  667300    283.01246   -11485.644            0   -10642.882     4130.998    734.73604    9.0235435    9.0235435    9.0235435    51.390318 
  667400    291.92861   -11506.754            0    -10637.44   -12218.371     737.9196    9.0365575    9.0365575    9.0365575    50.031222 
  667500    287.90964   -11487.884            0   -10630.539   -14136.624    740.58697    9.0474326    9.0474326    9.0474326    58.308914 
  667600    287.68359   -11478.732            0    -10622.06   -20811.015    742.08784    9.0535403    9.0535403    9.0535403    50.454609 
  667700    300.72809   -11510.469            0   -10614.952    -17210.49    742.06135    9.0534326    9.0534326    9.0534326    55.308111 
  667800    298.01463   -11495.858            0   -10608.422    -15110.61    740.56719     9.047352     9.047352     9.047352    47.607854 
  667900    305.82503   -11512.235            0    -10601.54   -7779.5609    738.12797     9.037408     9.037408     9.037408    52.661653 
  668000    302.18154    -11494.99            0   -10595.145    8119.7193    735.55406     9.026891     9.026891     9.026891    59.880886 
  668100    300.45166   -11484.716            0   -10590.023    9976.1952    733.46042    9.0183183    9.0183183    9.0183183    51.870567 
  668200    299.97129    -11479.08            0   -10585.817    23985.601     732.2923    9.0135282    9.0135282    9.0135282    55.105257 
  668300    305.34774    -11493.13            0   -10583.857    24353.417    732.40062    9.0139726    9.0139726    9.0139726    68.025112 
  668400     305.3325   -11492.083            0   -10582.855    12744.317    733.84293    9.0198858    9.0198858    9.0198858    51.257414 
  668500    289.38809   -11442.668            0    -10580.92    10494.039    736.04474    9.0288978    9.0288978    9.0288978    49.298475 
  668600    303.41245   -11484.489            0   -10580.979   -4097.3922    738.60476    9.0393534    9.0393534    9.0393534    50.964059 
  668700    293.36123    -11452.07            0   -10578.491   -21671.068    740.71827    9.0479672    9.0479672    9.0479672    50.165595 
  668800    301.06249   -11473.914            0   -10577.402   -18048.035    741.65916    9.0517967    9.0517967    9.0517967     49.61624 
  668900    306.56861   -11489.024            0   -10576.115   -22752.972    741.28563    9.0502768    9.0502768    9.0502768    68.007324 
  669000    312.65127   -11508.239            0   -10577.217   -10391.235    739.74822    9.0440158    9.0440158    9.0440158    45.461309 
  669100    297.41165   -11461.995            0   -10576.354     4484.334    737.69663    9.0356472    9.0356472    9.0356472    42.271609 
  669200    282.95415   -11419.268            0   -10576.679    4195.3772    735.64088    9.0272461    9.0272461    9.0272461    53.508034 
  669300    300.68479   -11478.066            0   -10582.678    8544.5968    734.01989    9.0206107    9.0206107    9.0206107     57.74856 
  669400    304.07416   -11496.796            0   -10591.315    14021.186    733.42138    9.0181583    9.0181583    9.0181583    48.096204 
  669500    295.63837   -11484.342            0   -10603.982    15055.634    733.76552    9.0195686    9.0195686    9.0195686    51.359504 
  669600    297.02943    -11506.65            0   -10622.147   -233.71612    734.78523    9.0237448    9.0237448    9.0237448    51.662153 
  669700     299.1314    -11529.01            0   -10638.248   -1269.6612    735.99713    9.0287031    9.0287031    9.0287031    47.254263 
  669800    293.51498   -11524.901            0   -10650.863    260.66168    737.11273    9.0332626    9.0332626    9.0332626    46.944938 
  669900     291.3075   -11526.682            0   -10659.218   -4480.2644    737.89573    9.0364601    9.0364601    9.0364601    51.620383 
  670000    286.41753   -11518.853            0   -10665.951   -5309.0422     738.0673    9.0371604    9.0371604    9.0371604    55.888225 
  670100    292.26659   -11539.685            0   -10669.365   -10584.847    737.72574    9.0357661    9.0357661    9.0357661    50.300666 
  670200    306.82574   -11585.805            0    -10672.13   -11251.248    736.85891    9.0322256    9.0322256    9.0322256    48.184216 
  670300    300.04817   -11564.651            0   -10671.158    1972.2738    735.87276    9.0281946    9.0281946    9.0281946    44.239241 
  670400    287.01618   -11521.463            0   -10666.778     4713.533    734.99532    9.0246048    9.0246048    9.0246048    58.891244 
  670500    292.11111   -11533.544            0   -10663.687    5380.7272    734.40261    9.0221783    9.0221783    9.0221783    43.391719 
  670600    292.21698   -11526.025            0   -10655.853    11604.546    734.31502    9.0218195    9.0218195    9.0218195    40.988249 
  670700    300.10925   -11542.351            0   -10648.676     4244.769    734.67591    9.0232973    9.0232973    9.0232973    55.400773 
  670800    296.06389    -11519.03            0   -10637.402    12432.116    735.29662    9.0258378    9.0258378    9.0258378    51.772879 
  670900    297.40381   -11512.958            0    -10627.34   -1870.5278    736.26161    9.0297845    9.0297845    9.0297845    54.772501 
  671000     302.9437   -11518.888            0   -10616.773    6411.3997    737.05882    9.0330424    9.0330424    9.0330424    61.573796 
  671100    291.99794   -11477.115            0   -10607.595   -6992.3398    737.70564     9.035684     9.035684     9.035684    49.021876 
  671200    307.62343   -11516.443            0   -10600.393   -10255.084    738.06366    9.0371455    9.0371455    9.0371455    50.959124 
  671300    307.20883   -11509.475            0    -10594.66   -12133.511    738.18941    9.0376587    9.0376587    9.0376587    48.223629 
  671400    304.37542   -11496.283            0   -10589.905   -10168.687    738.01386    9.0369422    9.0369422    9.0369422     58.63879 
  671500    298.50294   -11474.171            0    -10585.28   -447.58342    737.50393    9.0348604    9.0348604    9.0348604    52.557578 
  671600    300.33278    -11477.84            0     -10583.5   -44.977615    736.92568    9.0324985    9.0324985    9.0324985    48.450179 
  671700    302.42717   -11481.915            0   -10581.339   -1565.1793     736.4426    9.0305243    9.0305243    9.0305243     53.11059 
  671800    310.01866   -11504.242            0    -10581.06    956.69874    736.27081    9.0298221    9.0298221    9.0298221    59.565141 
  671900    304.91953   -11488.819            0   -10580.821    1962.1104    736.30678    9.0299692    9.0299692    9.0299692    49.586227 
  672000    299.64081   -11472.178            0   -10579.899     2631.666    736.69437    9.0315533    9.0315533    9.0315533    46.710183 
  672100    298.16947   -11469.155            0   -10581.257   -4315.5658    737.29985     9.034027     9.034027     9.034027     48.85794 
  672200    306.15763   -11494.515            0    -10582.83   -1629.9607    737.80813    9.0361024    9.0361024    9.0361024    45.167309 
  672300    309.88522   -11509.922            0   -10587.136   -2483.4813    738.15931    9.0375359    9.0375359    9.0375359    46.875941 
  672400    296.85447   -11473.173            0   -10589.191    -8421.888    738.34973    9.0383129    9.0383129    9.0383129    56.956678 
  672500    302.78764   -11497.839            0   -10596.189   -6891.0642    738.16053    9.0375409    9.0375409    9.0375409    51.202053 
  672600    301.93848   -11501.583            0   -10602.462   -12704.227      737.599    9.0352486    9.0352486    9.0352486    54.437744 
  672700    290.42082    -11477.93            0   -10613.106    8774.8038    736.72638    9.0316841    9.0316841    9.0316841    47.988275 
  672800    292.88973   -11499.105            0   -10626.929   -430.24141    735.95231    9.0285199    9.0285199    9.0285199    58.642059 
  672900    294.12685   -11516.108            0   -10640.248   -1052.6557    735.39317    9.0262328    9.0262328    9.0262328    50.690385 
  673000    289.77802   -11516.028            0   -10653.118    3944.4872    735.17893    9.0253562    9.0253562    9.0253562    60.102557 
  673100     291.8199   -11532.049            0   -10663.059    670.25667    735.15518     9.025259     9.025259     9.025259    58.160951 
  673200    287.77546   -11525.135            0   -10668.188     6066.683    735.26622    9.0257134    9.0257134    9.0257134    56.659367 
  673300    291.67992   -11541.244            0   -10672.671    5669.1301    735.50533    9.0266917    9.0266917    9.0266917    61.585482 
  673400    280.91443   -11509.119            0   -10672.604   -461.35618    735.82431    9.0279964    9.0279964    9.0279964     51.77921 
  673500    292.18942   -11541.038            0   -10670.947   -8047.3297    736.12048    9.0292075    9.0292075    9.0292075    55.565005 
  673600    283.53859   -11508.791            0   -10664.462   -4664.6995    736.30138    9.0299471    9.0299471    9.0299471    60.430237 
  673700    284.73567   -11504.868            0   -10656.974   -9539.4341    736.36266    9.0301976    9.0301976    9.0301976    44.442886 
  673800    287.09518   -11502.845            0   -10647.924    3115.6779    736.35851    9.0301806    9.0301806    9.0301806    58.092885 
  673900    290.78321   -11502.925            0   -10637.022   -1877.8219    736.44766     9.030545     9.030545     9.030545    55.328397 
  674000    289.45235   -11489.503            0   -10627.563   -3513.2052     736.5672    9.0310336    9.0310336    9.0310336    66.249576 
  674100    292.14355   -11489.763            0    -10619.81   -1338.8214     736.6693    9.0314509    9.0314509    9.0314509    56.079678 
  674200    301.59956   -11514.108            0   -10615.996   -658.39669    736.56718    9.0310335    9.0310335    9.0310335    55.357914 
  674300    291.66984   -11479.941            0   -10611.398   -2698.5895    736.40523    9.0303716    9.0303716    9.0303716    48.967812 
  674400    307.23958   -11522.852            0   -10607.945   -10237.782    736.18038    9.0294524    9.0294524    9.0294524    46.648989 
  674500    293.65434   -11477.388            0   -10602.936    7226.0046    735.79234    9.0278656    9.0278656    9.0278656    48.724979 
  674600    301.86264   -11499.384            0   -10600.488    4840.1505    735.55669    9.0269018    9.0269018    9.0269018    54.750022 
  674700    305.23216   -11505.428            0   -10596.499    2889.4168    735.56209    9.0269238    9.0269238    9.0269238    55.681463 
  674800    297.03726   -11475.978            0   -10591.452    17075.147    735.84781    9.0280925    9.0280925    9.0280925     56.61364 
  674900    295.18286   -11464.867            0   -10585.863    669.43043    736.69874    9.0315712    9.0315712    9.0315712    47.905549 
  675000    300.68516   -11474.766            0   -10579.377   -4042.5977    737.90915    9.0365148    9.0365148    9.0365148    41.946777 
  675100    300.47821   -11465.907            0   -10571.134   -8890.6801     739.1625    9.0416282    9.0416282    9.0416282     61.95079 
  675200    313.41639   -11498.711            0   -10565.411   -2810.2224    739.92565    9.0447388    9.0447388    9.0447388    53.774148 
  675300    301.69237   -11456.147            0   -10557.759   -10303.767    740.01127    9.0450876    9.0450876    9.0450876    54.651851 
  675400    302.07497   -11450.368            0    -10550.84   -7196.2275    739.36664    9.0424605    9.0424605    9.0424605    68.908886 
  675500    302.69397   -11448.071            0     -10546.7    4274.5781    738.31782    9.0381827    9.0381827    9.0381827    51.521861 
  675600    302.52354    -11444.36            0   -10543.497   -2830.0127    737.16464    9.0334747    9.0334747    9.0334747    50.812219 
  675700     304.8876   -11448.698            0   -10540.794    7315.9533    736.15412     9.029345     9.029345     9.029345     50.54971 
  675800    299.87809   -11432.882            0   -10539.896     7534.216    735.61842    9.0271543    9.0271543    9.0271543    63.938804 
  675900    306.79419   -11455.196            0   -10541.615    13459.515    735.70506    9.0275087    9.0275087    9.0275087    44.399997 
  676000    304.62746   -11451.297            0   -10544.168    8708.6593    736.43928    9.0305108    9.0305108    9.0305108    53.504766 
  676100    299.39208    -11442.19            0   -10550.652    15485.958    737.58292    9.0351829    9.0351829    9.0351829    62.179689 
  676200    303.08811   -11464.374            0    -10561.83    -2134.129    738.96862    9.0408375    9.0408375    9.0408375    44.336919 
  676300    311.50857   -11506.011            0   -10578.392   -12397.887    740.07684    9.0453548    9.0453548    9.0453548    46.638712 
  676400    294.60171   -11472.413            0   -10595.139   -15487.566    740.45083    9.0468781    9.0468781    9.0468781    63.738913 
  676500    303.39053    -11517.17            0   -10613.724   -12168.187    739.90448    9.0446525    9.0446525    9.0446525    50.832178 
  676600    291.74522   -11492.439            0   -10623.672   -13939.358    738.30693    9.0381383    9.0381383    9.0381383    48.809104 
  676700    297.90933   -11518.813            0    -10631.69   -5274.3603    735.94272    9.0284806    9.0284806    9.0284806     57.24593 
  676800    297.10992   -11519.657            0   -10634.915   -1513.4275    733.25109    9.0174603    9.0174603    9.0174603    45.956925 
  676900    301.91344   -11536.773            0   -10637.726    19982.751    731.03488    9.0083662    9.0083662    9.0083662    52.186679 
  677000    293.37844   -11510.223            0   -10636.592    31991.668    730.09711    9.0045126    9.0045126    9.0045126    68.577569 
  677100    299.81966   -11529.558            0   -10636.746    24193.623    730.75797    9.0072286    9.0072286    9.0072286    48.314353 
  677200    297.70069   -11521.889            0   -10635.387     6403.896    732.87877    9.0159338    9.0159338    9.0159338    56.537764 
  677300     310.3572   -11558.722            0   -10634.531    -3222.798    735.92297    9.0283999    9.0283999    9.0283999     55.29668 
  677400    297.07144   -11513.827            0   -10629.199   -16787.838    738.96352    9.0408167    9.0408167    9.0408167    61.055108 
  677500     307.3334   -11540.056            0   -10624.869   -19944.619    741.15166    9.0497315    9.0497315    9.0497315    48.698907 
  677600    287.84702   -11473.903            0   -10616.744   -23739.244    741.90861    9.0528114    9.0528114    9.0528114    52.554892 
  677700    298.38143   -11499.222            0   -10610.693   -15005.409    741.02393    9.0492116    9.0492116    9.0492116    56.632787 
  677800    294.27137     -11478.7            0   -10602.411   -5565.1972    738.81145    9.0401966    9.0401966    9.0401966    67.093431 
  677900    303.96088   -11498.967            0   -10593.823    961.78408    735.91884     9.028383     9.028383     9.028383    60.540778 
  678000    310.53556   -11510.045            0   -10585.323     20392.59    733.11983    9.0169222    9.0169222    9.0169222    53.291998 
  678100    299.42901    -11468.64            0   -10576.992    38282.813    731.47915    9.0101907    9.0101907    9.0101907    62.792066 
  678200    306.28917    -11483.18            0   -10571.103    22438.705    731.50342    9.0102904    9.0102904    9.0102904    52.036171 
  678300    311.01948   -11495.381            0   -10569.219    10355.055    733.07461    9.0167368    9.0167368    9.0167368    53.868121 
  678400    306.01816     -11478.5            0    -10567.23    3086.5309    735.76039     9.027735     9.027735     9.027735    54.619412 
  678500    304.32034   -11473.332            0   -10567.118   -19633.995    738.91353    9.0406129    9.0406129    9.0406129    38.804525 
  678600    308.91647   -11486.033            0   -10566.133    -17854.34    741.42247    9.0508336    9.0508336    9.0508336    64.937222 
  678700    312.09936   -11496.089            0   -10566.711   -20142.296    742.55806    9.0554521    9.0554521    9.0554521    48.103681 
  678800    301.51257   -11466.441            0   -10568.588    -30767.44    742.42426    9.0549082    9.0549082    9.0549082    51.626548 
  678900    303.68863   -11476.472            0   -10572.139   -10573.704     740.9456    9.0488928    9.0488928    9.0488928    47.254013 
  679000    299.66413   -11470.993            0   -10578.645   -5369.2547    738.38683    9.0384643    9.0384643    9.0384643    48.489639 
  679100    294.83991   -11467.289            0   -10589.306    19668.949    735.44723     9.026454     9.026454     9.026454    56.924809 
  679200    297.84016   -11490.829            0   -10603.912     24010.55    733.06488    9.0166969    9.0166969    9.0166969     72.16547 
  679300    293.61284    -11492.38            0   -10618.052    15953.728    731.78544    9.0114482    9.0114482    9.0114482    54.813592 
  679400     298.8451   -11521.762            0   -10631.852    26769.523    731.78687     9.011454     9.011454     9.011454    45.035851 
  679500    291.08075   -11508.423            0   -10641.635    9427.2603    732.94042    9.0161866    9.0161866    9.0161866    52.521246 
  679600    297.58977   -11535.927            0   -10649.756    6390.4171    734.98489    9.0245621    9.0245621    9.0245621    54.761569 
  679700    288.72247   -11514.025            0   -10654.258   -12981.061    737.28068    9.0339486    9.0339486    9.0339486    54.902165 
  679800    283.03571    -11499.19            0   -10656.358    -19956.62    739.00201    9.0409737    9.0409737    9.0409737    57.501614 
  679900     303.2892   -11561.808            0   -10658.665    -22508.67    739.63959     9.043573     9.043573     9.043573    61.619286 
  680000    288.01669   -11514.002            0   -10656.338   -15039.873    739.14967    9.0415758    9.0415758    9.0415758     56.52773 
Loop time of 1913.06 on 16 procs for 100000 steps with 1000 atoms

Performance: 4.516 ns/day, 5.314 hours/ns, 52.272 timesteps/s
94.8% CPU use with 16 MPI tasks x no OpenMP threads

MPI task timing breakdown:
Section |  min time  |  avg time  |  max time  |%varavg| %total
---------------------------------------------------------------
Pair    | 232.48     | 240.46     | 263.66     |  43.9 | 12.57
Neigh   | 80.035     | 82.931     | 89.914     |  26.2 |  4.33
Comm    | 64.738     | 94.941     | 105.78     |  92.4 |  4.96
Output  | 1003.3     | 1033.9     | 1487.5     | 364.2 | 54.05
Modify  | 6.3779     | 459.96     | 490.54     | 546.1 | 24.04
Other   |            | 0.8437     |            |       |  0.04

Nlocal:    62.5 ave 69 max 58 min
Histogram: 2 3 2 1 1 4 1 1 0 1
Nghost:    1940.56 ave 1964 max 1919 min
Histogram: 3 2 2 1 0 1 2 0 1 4
Neighs:    0 ave 0 max 0 min
Histogram: 16 0 0 0 0 0 0 0 0 0
FullNghs:  19894.9 ave 22115 max 18334 min
Histogram: 1 2 4 1 1 4 2 0 0 1

Total # of neighbors = 318318
Ave neighs/atom = 318.318
Neighbor list builds = 100000
Dangerous builds not checked
Total wall time: 3:34:17
