LAMMPS (16 Mar 2018)
Reading data file ...
  orthogonal box = (-4.72564 -4.72564 -4.72564) to (4.72564 4.72564 4.72564)
  2 by 2 by 4 MPI processor grid
  reading atoms ...
  1000 atoms
Reading potential file /home/fs01/ajm529/lammps-16Mar18/potentials/sw_potentials/AG/eps2.23.sw with DATE: 2008-01-29
Neighbor list info ...
  update every 1 steps, delay 0 steps, check no
  max neighbors/atom: 2000, page size: 100000
  master list distance cutoff = 3.836
  ghost atom cutoff = 3.836
  binsize = 1.918, bins = 5 5 5
  1 neighbor lists, perpetual/occasional/extra = 1 0 0
  (1) pair sw, perpetual
      attributes: full, newton on
      pair build: full/bin/atomonly
      stencil: full/bin/3d
      bin: standard
Setting up Verlet run ...
  Unit style    : real
  Current step  : 0
  Time step     : 1
Per MPI rank memory allocation (min/avg/max) = 3.518 | 3.519 | 3.52 Mbytes
Step Temp E_pair E_mol TotEng Press Volume Lx Ly Lz S/CPU 
       0          300   -10130.134            0   -9236.7853   -34179.292     844.2533    9.4512864    9.4512864    9.4512864            0 
     100    320.09484   -10194.491            0   -9241.3034   -42606.406     842.1632    9.4434805    9.4434805    9.4434805    39.336708 
     200    317.94075   -10200.342            0   -9253.5686   -42046.664    836.28704    9.4214653    9.4214653    9.4214653    37.346438 
     300    323.37664   -10237.737            0   -9274.7765   -28937.011    827.29633    9.3875811    9.3875811    9.3875811    37.088049 
     400    329.45104   -10278.778            0   -9297.7288    -6422.162    816.66641    9.3472006    9.3472006    9.3472006    49.236121 
     500    325.44098   -10287.641            0   -9318.5334   -1428.7164    806.36707    9.3077404    9.3077404    9.3077404    41.187785 
     600    330.81923   -10318.472            0   -9333.3487   -1724.7808    797.48804    9.2734512    9.2734512    9.2734512    40.381555 
     700     327.3933   -10322.806            0   -9347.8849    17851.281    790.63103    9.2467962    9.2467962    9.2467962    46.474934 
     800    322.46748   -10323.371            0   -9363.1182    9045.4272     785.9113    9.2283596    9.2283596    9.2283596    39.773145 
     900    321.60452   -10337.194            0   -9379.5111    20651.515    782.64999    9.2155769    9.2155769    9.2155769    34.367884 
    1000    334.50947   -10395.606            0    -9399.494    33535.609    780.98882    9.2090523    9.2090523    9.2090523    30.851872 
Loop time of 25.6684 on 16 procs for 1000 steps with 1000 atoms

Performance: 3.366 ns/day, 7.130 hours/ns, 38.958 timesteps/s
94.3% CPU use with 16 MPI tasks x no OpenMP threads

MPI task timing breakdown:
Section |  min time  |  avg time  |  max time  |%varavg| %total
---------------------------------------------------------------
Pair    | 1.9061     | 2.0386     | 2.1992     |   4.8 |  7.94
Neigh   | 0.78439    | 0.81728    | 0.86223    |   2.1 |  3.18
Comm    | 0.56976    | 0.7767     | 0.9408     |   9.9 |  3.03
Output  | 14.732     | 15.19      | 21.949     |  44.8 | 59.18
Modify  | 0.076021   | 6.8359     | 7.2937     |  66.8 | 26.63
Other   |            | 0.01044    |            |       |  0.04

Nlocal:    62.5 ave 68 max 56 min
Histogram: 1 1 0 2 2 4 1 2 1 2
Nghost:    1853.5 ave 1867 max 1837 min
Histogram: 2 0 1 0 3 3 1 4 0 2
Neighs:    0 ave 0 max 0 min
Histogram: 16 0 0 0 0 0 0 0 0 0
FullNghs:  18884.9 ave 20656 max 16922 min
Histogram: 1 1 1 3 2 2 1 2 1 2

Total # of neighbors = 302158
Ave neighs/atom = 302.158
Neighbor list builds = 1000
Dangerous builds not checked
Setting up Verlet run ...
  Unit style    : real
  Current step  : 1000
  Time step     : 1
Per MPI rank memory allocation (min/avg/max) = 3.768 | 4.477 | 4.578 Mbytes
Step Temp E_pair E_mol TotEng Press Volume Lx Ly Lz S/CPU 
    1000    334.50947   -10395.606            0    -9399.494    33535.609    780.98882    9.2090523    9.2090523    9.2090523            0 
    1100    315.46146   -10358.345            0   -9418.9549    3511.5231    781.13355    9.2096211    9.2096211    9.2096211    46.914444 
    1200    316.66126   -10381.064            0   -9438.1004    11744.428    782.39137    9.2145617    9.2145617    9.2145617     46.87433 
    1300    319.25352   -10408.615            0   -9457.9322    5953.9762    783.87794     9.220394     9.220394     9.220394    36.895112 
    1400    319.42817   -10426.624            0   -9475.4215    10057.499    785.37345     9.226254     9.226254     9.226254    34.242814 
    1500    314.71415   -10429.067            0   -9491.9024   -11022.899    787.07205    9.2329007    9.2329007    9.2329007    36.235134 
    1600    294.96765   -10386.005            0   -9507.6414    8493.7821    788.49325    9.2384545    9.2384545    9.2384545    35.696553 
    1700    303.00117   -10423.988            0   -9521.7018   -16363.151    789.79196    9.2435239    9.2435239    9.2435239    41.647208 
    1800    305.34366    -10444.45            0   -9535.1885   -17502.968    790.48846    9.2462403    9.2462403    9.2462403    43.086007 
    1900    301.41187   -10446.359            0   -9548.8061    3271.0683    790.92796    9.2479536    9.2479536    9.2479536    33.389964 
    2000    297.42937   -10447.843            0   -9562.1494   -9427.5992    791.49258    9.2501537    9.2501537    9.2501537    41.397674 
Loop time of 25.5894 on 16 procs for 1000 steps with 1000 atoms

Performance: 3.376 ns/day, 7.108 hours/ns, 39.079 timesteps/s
94.3% CPU use with 16 MPI tasks x no OpenMP threads

MPI task timing breakdown:
Section |  min time  |  avg time  |  max time  |%varavg| %total
---------------------------------------------------------------
Pair    | 2.0634     | 2.1596     | 2.2354     |   3.6 |  8.44
Neigh   | 0.79097    | 0.82892    | 0.85159    |   1.7 |  3.24
Comm    | 0.66588    | 0.75231    | 0.8863     |   7.5 |  2.94
Output  | 15.219     | 15.633     | 21.75      |  39.9 | 61.09
Modify  | 0.086581   | 6.2047     | 6.6199     |  63.4 | 24.25
Other   |            | 0.01055    |            |       |  0.04

Nlocal:    62.5 ave 68 max 58 min
Histogram: 2 1 0 2 1 5 3 0 1 1
Nghost:    1851.88 ave 1870 max 1832 min
Histogram: 1 2 2 0 2 2 1 3 1 2
Neighs:    0 ave 0 max 0 min
Histogram: 16 0 0 0 0 0 0 0 0 0
FullNghs:  18639.9 ave 20286 max 17132 min
Histogram: 3 0 0 2 2 5 2 1 0 1

Total # of neighbors = 298238
Ave neighs/atom = 298.238
Neighbor list builds = 1000
Dangerous builds not checked
Setting up Verlet run ...
  Unit style    : real
  Current step  : 2000
  Time step     : 1
Per MPI rank memory allocation (min/avg/max) = 4.577 | 4.578 | 4.579 Mbytes
Step Temp E_pair E_mol TotEng Press Volume Lx Ly Lz S/CPU 
    2000    297.42937   -10447.843            0   -9562.1494   -9427.5992    791.49258    9.2501537    9.2501537    9.2501537            0 
    2100    301.60383   -10473.015            0   -9574.8905    120.77802    791.93273    9.2518681    9.2518681    9.2518681    53.405192 
    2200    300.55628   -10482.546            0   -9587.5402   -7993.5203    792.32496    9.2533952    9.2533952    9.2533952    37.602713 
    2300    297.67322   -10485.137            0    -9598.717   -10148.901    792.23811    9.2530571    9.2530571    9.2530571    37.019819 
    2400    311.21496   -10536.492            0   -9609.7474   -19795.863    791.46669    9.2500529    9.2500529    9.2500529    36.844393 
    2500    299.59884   -10510.775            0   -9618.6211   -8945.3785    790.19006    9.2450767    9.2450767    9.2450767    38.881145 
    2600    304.95516   -10535.372            0   -9627.2677   -12240.347    788.43243     9.238217     9.238217     9.238217    44.518747 
    2700    290.21124   -10499.266            0   -9635.0663   -3236.2319    786.01387    9.2287611    9.2287611    9.2287611    35.282818 
    2800    310.37768   -10568.251            0   -9643.9997   -3955.1119    783.29462    9.2181063    9.2181063    9.2181063    42.252241 
    2900    294.75179   -10529.156            0   -9651.4353    9892.0583    780.52201    9.2072171    9.2072171    9.2072171    39.979364 
    3000    301.74464   -10557.241            0   -9658.6966     10996.89    777.85625    9.1967232    9.1967232    9.1967232    49.508305 
Loop time of 24.4876 on 16 procs for 1000 steps with 1000 atoms

Performance: 3.528 ns/day, 6.802 hours/ns, 40.837 timesteps/s
94.3% CPU use with 16 MPI tasks x no OpenMP threads

MPI task timing breakdown:
Section |  min time  |  avg time  |  max time  |%varavg| %total
---------------------------------------------------------------
Pair    | 2.0434     | 2.1307     | 2.2791     |   4.2 |  8.70
Neigh   | 0.79662    | 0.8241     | 0.87399    |   2.3 |  3.37
Comm    | 0.56336    | 0.74639    | 0.86129    |   9.4 |  3.05
Output  | 14.173     | 14.586     | 20.684     |  41.2 | 59.57
Modify  | 0.093394   | 6.1896     | 6.6031     |  63.3 | 25.28
Other   |            | 0.01045    |            |       |  0.04

Nlocal:    62.5 ave 67 max 58 min
Histogram: 1 2 1 2 2 2 2 1 2 1
Nghost:    1871.62 ave 1890 max 1844 min
Histogram: 1 1 1 2 2 0 3 0 2 4
Neighs:    0 ave 0 max 0 min
Histogram: 16 0 0 0 0 0 0 0 0 0
FullNghs:  18963.9 ave 20452 max 17502 min
Histogram: 1 1 4 0 2 2 2 1 2 1

Total # of neighbors = 303422
Ave neighs/atom = 303.422
Neighbor list builds = 1000
Dangerous builds not checked
Setting up Verlet run ...
  Unit style    : real
  Current step  : 3000
  Time step     : 1
Per MPI rank memory allocation (min/avg/max) = 4.578 | 4.578 | 4.579 Mbytes
Step Temp E_pair E_mol TotEng Press Volume Lx Ly Lz S/CPU 
    3000    301.74464   -10557.241            0   -9658.6966     10996.89    777.85625    9.1967232    9.1967232    9.1967232            0 
    3100    303.23837   -10567.489            0   -9664.4974    14838.813    776.02889    9.1895158    9.1895158    9.1895158    30.801214 
    3200     299.4827   -10563.544            0   -9671.7354     6083.564    775.10596    9.1858714    9.1858714    9.1858714     50.26985 
    3300    298.81583   -10568.583            0   -9678.7606     996.4167    774.63547    9.1840124    9.1840124    9.1840124     49.41703 
    3400    290.07978   -10547.655            0   -9683.8465    12728.532     774.2991    9.1826829    9.1826829    9.1826829    34.815431 
    3500    283.94765   -10534.711            0   -9689.1636     15401.64    774.55911    9.1837106    9.1837106    9.1837106     40.96844 
    3600    295.26378   -10573.815            0   -9694.5697    5799.7917     775.6206    9.1879039    9.1879039    9.1879039    41.174138 
    3700    289.65397   -10560.409            0   -9697.8692    2702.2934    776.82892    9.1926726    9.1926726    9.1926726    36.776373 
    3800     298.1079   -10586.722            0   -9699.0072   -5561.4157    777.91346    9.1969487    9.1969487    9.1969487    50.232778 
    3900    287.36863   -10553.534            0   -9697.7988   -4982.6047    778.62377    9.1997471    9.1997471    9.1997471    36.951259 
    4000     277.3749   -10518.905            0   -9692.9302   -10976.117    779.14446    9.2017973    9.2017973    9.2017973    39.873619 
Loop time of 24.9255 on 16 procs for 1000 steps with 1000 atoms

Performance: 3.466 ns/day, 6.924 hours/ns, 40.120 timesteps/s
94.3% CPU use with 16 MPI tasks x no OpenMP threads

MPI task timing breakdown:
Section |  min time  |  avg time  |  max time  |%varavg| %total
---------------------------------------------------------------
Pair    | 2.0864     | 2.1946     | 2.2919     |   4.0 |  8.80
Neigh   | 0.80922    | 0.83195    | 0.87423    |   1.9 |  3.34
Comm    | 0.63046    | 0.77026    | 0.89506    |   8.3 |  3.09
Output  | 15.084     | 15.464     | 21.057     |  36.7 | 62.04
Modify  | 0.059948   | 5.6543     | 6.0344     |  60.7 | 22.68
Other   |            | 0.01061    |            |       |  0.04

Nlocal:    62.5 ave 69 max 55 min
Histogram: 1 0 3 1 3 0 3 2 2 1
Nghost:    1865.69 ave 1878 max 1850 min
Histogram: 1 0 3 2 1 0 2 3 3 1
Neighs:    0 ave 0 max 0 min
Histogram: 16 0 0 0 0 0 0 0 0 0
FullNghs:  18932 ave 21195 max 16510 min
Histogram: 1 0 3 1 3 1 4 1 1 1

Total # of neighbors = 302912
Ave neighs/atom = 302.912
Neighbor list builds = 1000
Dangerous builds not checked
Setting up Verlet run ...
  Unit style    : real
  Current step  : 4000
  Time step     : 1
Per MPI rank memory allocation (min/avg/max) = 4.578 | 4.578 | 4.579 Mbytes
Step Temp E_pair E_mol TotEng Press Volume Lx Ly Lz S/CPU 
    4000     277.3749   -10518.905            0   -9692.9302   -10976.117    779.14446    9.2017973    9.2017973    9.2017973            0 
    4100    293.88837   -10563.705            0   -9688.5552   -1909.4593    778.94638    9.2010175    9.2010175    9.2010175    36.237951 
    4200    278.48176   -10507.101            0   -9677.8297    5729.9484    778.35035    9.1986701    9.1986701    9.1986701    36.224924 
    4300    293.10875   -10540.912            0   -9668.0838    18549.178    778.15747    9.1979102    9.1979102    9.1979102    41.534062 
    4400    302.19542   -10557.435            0    -9657.549    7762.2605    778.77447    9.2003405    9.2003405    9.2003405    36.658132 
    4500    293.30122   -10518.656            0   -9645.2554    2126.2461     779.7655    9.2042415    9.2042415    9.2042415    48.498959 
    4600    287.67334   -10492.577            0   -9635.9349    10918.981    780.90632     9.208728     9.208728     9.208728    34.433974 
    4700    299.28855   -10518.489            0   -9627.2593    6592.6173    782.21573    9.2138721    9.2138721    9.2138721    41.018608 
    4800     293.9828     -10496.2            0    -9620.769    12350.735    783.70429    9.2197131    9.2197131    9.2197131    39.736206 
    4900    308.40087   -10533.943            0   -9615.5779   -9038.8999    785.37759    9.2262702    9.2262702    9.2262702    40.018882 
    5000    301.87054   -10510.127            0   -9611.2076   -4285.4219    786.78921    9.2317946    9.2317946    9.2317946    37.591373 
Loop time of 25.7352 on 16 procs for 1000 steps with 1000 atoms

Performance: 3.357 ns/day, 7.149 hours/ns, 38.857 timesteps/s
94.3% CPU use with 16 MPI tasks x no OpenMP threads

MPI task timing breakdown:
Section |  min time  |  avg time  |  max time  |%varavg| %total
---------------------------------------------------------------
Pair    | 2.0221     | 2.1739     | 2.318      |   5.2 |  8.45
Neigh   | 0.77826    | 0.83163    | 0.86829    |   2.8 |  3.23
Comm    | 0.56135    | 0.74177    | 0.94704    |  11.7 |  2.88
Output  | 15.406     | 15.818     | 21.904     |  39.5 | 61.47
Modify  | 0.076013   | 6.159      | 6.5711     |  63.3 | 23.93
Other   |            | 0.01055    |            |       |  0.04

Nlocal:    62.5 ave 72 max 55 min
Histogram: 1 2 5 0 2 2 1 1 1 1
Nghost:    1851.12 ave 1874 max 1831 min
Histogram: 2 3 0 2 3 0 0 4 1 1
Neighs:    0 ave 0 max 0 min
Histogram: 16 0 0 0 0 0 0 0 0 0
FullNghs:  18754 ave 21472 max 16620 min
Histogram: 2 2 3 1 2 2 0 1 1 2

Total # of neighbors = 300064
Ave neighs/atom = 300.064
Neighbor list builds = 1000
Dangerous builds not checked
Setting up Verlet run ...
  Unit style    : real
  Current step  : 5000
  Time step     : 1
Per MPI rank memory allocation (min/avg/max) = 4.578 | 4.578 | 4.579 Mbytes
Step Temp E_pair E_mol TotEng Press Volume Lx Ly Lz S/CPU 
    5000    301.87054   -10510.127            0   -9611.2076   -4285.4219    786.78921    9.2317946    9.2317946    9.2317946            0 
    5100    292.80062   -10477.555            0   -9605.6449    50.521688    787.92468    9.2362335    9.2362335    9.2362335    38.574235 
    5200    296.89925   -10484.887            0   -9600.7716   -19106.065     788.5678    9.2387457    9.2387457    9.2387457    42.528762 
    5300    295.65808   -10475.588            0   -9595.1687   -5583.3902    788.27031    9.2375838    9.2375838    9.2375838    30.945262 
    5400    306.99681    -10503.95            0    -9589.766   -3900.6861    787.13973    9.2331653    9.2331653    9.2331653    40.607513 
    5500    308.58455   -10504.822            0   -9585.9096   -5895.3343     785.7725    9.2278163    9.2278163    9.2278163    41.099565 
    5600    309.79564   -10503.923            0   -9581.4045   -6898.3127     784.7607    9.2238539    9.2238539    9.2238539    35.647052 
    5700     300.7389   -10472.757            0   -9577.2077   -1970.0923    783.66047    9.2195413    9.2195413    9.2195413    36.177295 
    5800    298.19919   -10461.378            0   -9573.3918   -8923.4778    782.30985    9.2142417    9.2142417    9.2142417    42.705258 
    5900    309.80392   -10491.987            0   -9569.4434    5481.6722    780.95798    9.2089311    9.2089311    9.2089311    44.006795 
    6000    302.05059   -10466.402            0   -9566.9468    12483.171    779.94643    9.2049533    9.2049533    9.2049533    29.903976 
Loop time of 26.5985 on 16 procs for 1000 steps with 1000 atoms

Performance: 3.248 ns/day, 7.388 hours/ns, 37.596 timesteps/s
94.3% CPU use with 16 MPI tasks x no OpenMP threads

MPI task timing breakdown:
Section |  min time  |  avg time  |  max time  |%varavg| %total
---------------------------------------------------------------
Pair    | 2.0453     | 2.1702     | 2.344      |   5.0 |  8.16
Neigh   | 0.7969     | 0.83432    | 0.87581    |   2.8 |  3.14
Comm    | 0.53277    | 0.74218    | 0.90028    |  11.2 |  2.79
Output  | 15.883     | 16.319     | 22.748     |  41.1 | 61.35
Modify  | 0.10014    | 6.5226     | 6.9579     |  64.9 | 24.52
Other   |            | 0.01062    |            |       |  0.04

Nlocal:    62.5 ave 66 max 59 min
Histogram: 3 2 1 0 1 2 0 3 2 2
Nghost:    1867.94 ave 1894 max 1834 min
Histogram: 1 1 1 0 3 1 4 2 1 2
Neighs:    0 ave 0 max 0 min
Histogram: 16 0 0 0 0 0 0 0 0 0
FullNghs:  18927.1 ave 20072 max 17709 min
Histogram: 2 3 0 0 2 2 1 3 0 3

Total # of neighbors = 302834
Ave neighs/atom = 302.834
Neighbor list builds = 1000
Dangerous builds not checked
Setting up Verlet run ...
  Unit style    : real
  Current step  : 6000
  Time step     : 1
Per MPI rank memory allocation (min/avg/max) = 4.578 | 4.578 | 4.579 Mbytes
Step Temp E_pair E_mol TotEng Press Volume Lx Ly Lz S/CPU 
    6000    302.05059   -10466.402            0   -9566.9468    12483.171    779.94643    9.2049533    9.2049533    9.2049533            0 
    6100    298.03823   -10453.719            0   -9566.2122    13799.013    779.49039    9.2031589    9.2031589    9.2031589    42.064805 
    6200    289.59308    -10427.62            0   -9565.2616    7828.1741    779.47858    9.2031124    9.2031124    9.2031124    46.940531 
    6300    300.00423   -10458.002            0   -9564.6402    3418.8099    779.99255    9.2051348    9.2051348    9.2051348    34.768381 
    6400    305.36041   -10473.624            0   -9564.3124    2943.0605     780.9281    9.2088136    9.2088136    9.2088136    38.769221 
    6500    309.68623    -10486.82            0   -9564.6278   -11290.917    781.90742    9.2126614    9.2126614    9.2126614    36.972542 
    6600    307.75081   -10482.335            0   -9565.9054    10328.592    782.44177    9.2147596    9.2147596    9.2147596    49.474562 
    6700    302.91114   -10471.031            0   -9569.0132   -5023.4451    783.17898    9.2176527    9.2176527    9.2176527    31.906478 
    6800    309.03147   -10497.827            0   -9577.5843    6553.7346    783.72626    9.2197993    9.2197993    9.2197993    36.201342 
    6900    306.66781   -10499.776            0   -9586.5714   -2239.0253    784.48589    9.2227771    9.2227771    9.2227771    32.188831 
    7000    294.16339   -10473.487            0   -9597.5191   -14846.343    785.23408    9.2257082    9.2257082    9.2257082    44.724438 
Loop time of 25.9282 on 16 procs for 1000 steps with 1000 atoms

Performance: 3.332 ns/day, 7.202 hours/ns, 38.568 timesteps/s
94.3% CPU use with 16 MPI tasks x no OpenMP threads

MPI task timing breakdown:
Section |  min time  |  avg time  |  max time  |%varavg| %total
---------------------------------------------------------------
Pair    | 2.0775     | 2.1786     | 2.2852     |   3.7 |  8.40
Neigh   | 0.80096    | 0.83194    | 0.8773     |   2.1 |  3.21
Comm    | 0.60704    | 0.75832    | 0.89112    |   8.3 |  2.92
Output  | 15.958     | 16.343     | 22.029     |  36.3 | 63.03
Modify  | 0.1248     | 5.8054     | 6.191      |  60.9 | 22.39
Other   |            | 0.01055    |            |       |  0.04

Nlocal:    62.5 ave 67 max 55 min
Histogram: 1 0 2 0 1 4 0 0 6 2
Nghost:    1851.44 ave 1870 max 1835 min
Histogram: 2 0 2 2 4 0 3 1 1 1
Neighs:    0 ave 0 max 0 min
Histogram: 16 0 0 0 0 0 0 0 0 0
FullNghs:  18783.2 ave 20363 max 16389 min
Histogram: 1 0 2 1 2 2 0 3 4 1

Total # of neighbors = 300532
Ave neighs/atom = 300.532
Neighbor list builds = 1000
Dangerous builds not checked
Setting up Verlet run ...
  Unit style    : real
  Current step  : 7000
  Time step     : 1
Per MPI rank memory allocation (min/avg/max) = 4.578 | 4.578 | 4.579 Mbytes
Step Temp E_pair E_mol TotEng Press Volume Lx Ly Lz S/CPU 
    7000    294.16339   -10473.487            0   -9597.5191   -14846.343    785.23408    9.2257082    9.2257082    9.2257082            0 
    7100    292.58508   -10481.314            0   -9610.0459   -6222.1504    785.31459    9.2260235    9.2260235    9.2260235    35.220907 
    7200    299.21716   -10512.293            0   -9621.2751   -10056.489    785.06066     9.225029     9.225029     9.225029    37.303108 
    7300    292.97803   -10502.284            0   -9629.8458   -16573.517    784.46158    9.2226818    9.2226818    9.2226818    34.876328 
    7400    302.29075   -10537.841            0   -9637.6705   -1496.7316    783.22244    9.2178232    9.2178232    9.2178232    37.509909 
    7500    294.08584   -10518.631            0   -9642.8935   -2209.9492    781.90802    9.2126638    9.2126638    9.2126638    46.647273 
    7600    294.08968   -10521.524            0   -9645.7749    20039.105    781.11251    9.2095384    9.2095384    9.2095384    41.698887 
    7700    284.12833   -10494.634            0   -9648.5488    298.28874    781.25657    9.2101045    9.2101045    9.2101045    37.092254 
    7800    286.90611    -10504.83            0   -9650.4725   -10043.055    781.85074    9.2124388    9.2124388    9.2124388    38.902731 
    7900    297.29213   -10535.877            0   -9650.5915    2096.0738    782.29033    9.2141651    9.2141651    9.2141651    44.867078 
    8000    293.26931   -10523.077            0   -9649.7708   -5115.3825    782.54655    9.2151709    9.2151709    9.2151709    37.060872 
Loop time of 25.7887 on 16 procs for 1000 steps with 1000 atoms

Performance: 3.350 ns/day, 7.164 hours/ns, 38.777 timesteps/s
94.3% CPU use with 16 MPI tasks x no OpenMP threads

MPI task timing breakdown:
Section |  min time  |  avg time  |  max time  |%varavg| %total
---------------------------------------------------------------
Pair    | 2.0019     | 2.1663     | 2.2252     |   4.1 |  8.40
Neigh   | 0.79459    | 0.83124    | 0.85772    |   1.9 |  3.22
Comm    | 0.69222    | 0.76339    | 0.95578    |   8.6 |  2.96
Output  | 15.706     | 16.103     | 21.953     |  37.6 | 62.44
Modify  | 0.062487   | 5.9143     | 6.3149     |  62.1 | 22.93
Other   |            | 0.01057    |            |       |  0.04

Nlocal:    62.5 ave 69 max 57 min
Histogram: 1 1 2 1 2 6 1 1 0 1
Nghost:    1859.94 ave 1874 max 1845 min
Histogram: 1 0 4 0 5 0 1 3 0 2
Neighs:    0 ave 0 max 0 min
Histogram: 16 0 0 0 0 0 0 0 0 0
FullNghs:  18863.9 ave 20996 max 17249 min
Histogram: 1 2 1 3 5 1 2 0 0 1

Total # of neighbors = 301822
Ave neighs/atom = 301.822
Neighbor list builds = 1000
Dangerous builds not checked
Setting up Verlet run ...
  Unit style    : real
  Current step  : 8000
  Time step     : 1
Per MPI rank memory allocation (min/avg/max) = 4.578 | 4.578 | 4.579 Mbytes
Step Temp E_pair E_mol TotEng Press Volume Lx Ly Lz S/CPU 
    8000    293.26931   -10523.077            0   -9649.7708   -5115.3825    782.54655    9.2151709    9.2151709    9.2151709            0 
    8100    287.79016   -10501.955            0   -9644.9652    8662.7918    782.75078    9.2159725    9.2159725    9.2159725    47.744859 
    8200    296.83048   -10523.482            0   -9639.5713    13434.352    783.17606    9.2176412    9.2176412    9.2176412    41.247648 
    8300    297.06936   -10515.249            0   -9630.6275    12441.294    784.24301    9.2218252    9.2218252    9.2218252    34.487449 
    8400    295.50222   -10499.896            0   -9619.9409    903.46613    785.73884    9.2276846    9.2276846    9.2276846     30.76528 
    8500    294.68328   -10486.023            0   -9608.5069    1703.3597    787.50012    9.2345742    9.2345742    9.2345742    42.771455 
    8600     300.8358   -10491.993            0   -9596.1554    -13319.21    789.35937     9.241836     9.241836     9.241836    44.209991 
    8700    302.92373   -10487.571            0   -9585.5157   -27236.426    790.83544     9.247593     9.247593     9.247593    31.576874 
    8800     304.1195   -10482.835            0   -9577.2195    -10466.71    791.62594    9.2506732    9.2506732    9.2506732    33.884991 
    8900    304.20798   -10477.579            0   -9571.6994   -12796.368    791.72792    9.2510704    9.2510704    9.2510704    34.308825 
    9000    299.25843   -10458.323            0   -9567.1826   -1817.0453    791.03135    9.2483566    9.2483566    9.2483566    44.753015 
Loop time of 26.5361 on 16 procs for 1000 steps with 1000 atoms

Performance: 3.256 ns/day, 7.371 hours/ns, 37.685 timesteps/s
94.2% CPU use with 16 MPI tasks x no OpenMP threads

MPI task timing breakdown:
Section |  min time  |  avg time  |  max time  |%varavg| %total
---------------------------------------------------------------
Pair    | 2.0577     | 2.1483     | 2.2285     |   3.2 |  8.10
Neigh   | 0.81004    | 0.83251    | 0.8567     |   1.5 |  3.14
Comm    | 0.64889    | 0.73791    | 0.84996    |   6.7 |  2.78
Output  | 15.927     | 16.358     | 22.725     |  40.7 | 61.64
Modify  | 0.088055   | 6.449      | 6.8798     |  64.7 | 24.30
Other   |            | 0.01052    |            |       |  0.04

Nlocal:    62.5 ave 68 max 57 min
Histogram: 1 2 1 2 2 2 2 1 2 1
Nghost:    1845.06 ave 1870 max 1822 min
Histogram: 2 2 2 0 2 3 0 2 0 3
Neighs:    0 ave 0 max 0 min
Histogram: 16 0 0 0 0 0 0 0 0 0
FullNghs:  18675.8 ave 20413 max 16989 min
Histogram: 1 1 2 2 2 3 2 0 2 1

Total # of neighbors = 298812
Ave neighs/atom = 298.812
Neighbor list builds = 1000
Dangerous builds not checked
Setting up Verlet run ...
  Unit style    : real
  Current step  : 9000
  Time step     : 1
Per MPI rank memory allocation (min/avg/max) = 4.578 | 4.578 | 4.579 Mbytes
Step Temp E_pair E_mol TotEng Press Volume Lx Ly Lz S/CPU 
    9000    299.25843   -10458.323            0   -9567.1826   -1817.0453    791.03135    9.2483566    9.2483566    9.2483566            0 
    9100    303.14228   -10467.751            0   -9565.0454    546.80253     790.3532    9.2457129    9.2457129    9.2457129    35.221282 
    9200    303.51753   -10467.901            0    -9564.078    314.63217    789.54718    9.2425689    9.2425689    9.2425689    42.446547 
    9300    300.28106   -10457.768            0   -9563.5826    -4599.302    788.24297     9.237477     9.237477     9.237477    34.441972 
    9400    301.16366   -10460.768            0   -9563.9541   -6022.5946     786.1106    9.2291396    9.2291396    9.2291396    39.088689 
    9500    296.39977   -10445.725            0   -9563.0967    7632.1587    783.57331    9.2191995    9.2191995    9.2191995    37.151769 
    9600    305.08486   -10472.939            0   -9564.4489    7570.3667    780.82359    9.2084028    9.2084028    9.2084028    43.235061 
    9700    298.49151   -10452.818            0   -9563.9614    1243.4914    778.30272    9.1984824    9.1984824    9.1984824     44.02829 
    9800      309.463   -10486.881            0    -9565.353    10715.071    776.01608    9.1894653    9.1894653    9.1894653    32.231639 
    9900     307.7337   -10484.162            0   -9567.7839    4592.6846    774.53726    9.1836242    9.1836242    9.1836242    45.263638 
   10000    306.82438   -10486.963            0   -9573.2925    14237.374    773.72358    9.1804072    9.1804072    9.1804072     41.31672 
Loop time of 25.6649 on 16 procs for 1000 steps with 1000 atoms

Performance: 3.366 ns/day, 7.129 hours/ns, 38.964 timesteps/s
94.3% CPU use with 16 MPI tasks x no OpenMP threads

MPI task timing breakdown:
Section |  min time  |  avg time  |  max time  |%varavg| %total
---------------------------------------------------------------
Pair    | 2.0156     | 2.1717     | 2.3623     |   5.9 |  8.46
Neigh   | 0.79022    | 0.82896    | 0.88135    |   3.0 |  3.23
Comm    | 0.52175    | 0.7643     | 0.95884    |  13.0 |  2.98
Output  | 14.902     | 15.34      | 21.813     |  42.7 | 59.77
Modify  | 0.076014   | 6.5493     | 6.9882     |  65.3 | 25.52
Other   |            | 0.01056    |            |       |  0.04

Nlocal:    62.5 ave 67 max 54 min
Histogram: 1 0 2 0 1 0 5 2 1 4
Nghost:    1872.94 ave 1898 max 1851 min
Histogram: 2 1 1 1 5 3 0 1 0 2
Neighs:    0 ave 0 max 0 min
Histogram: 16 0 0 0 0 0 0 0 0 0
FullNghs:  19084.4 ave 20688 max 16389 min
Histogram: 1 1 1 0 1 0 6 1 3 2

Total # of neighbors = 305350
Ave neighs/atom = 305.35
Neighbor list builds = 1000
Dangerous builds not checked
Setting up Verlet run ...
  Unit style    : real
  Current step  : 10000
  Time step     : 1
Per MPI rank memory allocation (min/avg/max) = 4.578 | 4.578 | 4.579 Mbytes
Step Temp E_pair E_mol TotEng Press Volume Lx Ly Lz S/CPU 
   10000    306.82438   -10486.963            0   -9573.2925    14237.374    773.72358    9.1804072    9.1804072    9.1804072            0 
   10100    302.36188   -10482.616            0   -9582.2336    10403.959    773.93161    9.1812299    9.1812299    9.1812299    44.940001 
   10200    306.03147    -10505.03            0   -9593.7202    11490.768    774.89768    9.1850485    9.1850485    9.1850485    30.828843 
   10300    315.69373    -10548.84            0   -9608.7577    14056.736    776.31563    9.1906475    9.1906475    9.1906475    41.728044 
   10400      299.219   -10512.448            0   -9621.4247    5958.6914    778.18688     9.198026     9.198026     9.198026    35.029423 
   10500    289.90344   -10495.928            0    -9632.645    145.59683    780.19068    9.2059141    9.2059141    9.2059141    44.879738 
   10600    301.68903   -10538.859            0   -9640.4803   -6060.9467    781.60284    9.2114651    9.2114651    9.2114651    37.531274 
   10700    300.26878    -10539.12            0   -9644.9704   -16509.317    782.01031    9.2130655    9.2130655    9.2130655    40.907762 
   10800    299.18384   -10537.163            0   -9646.2443   -5833.6156    781.65085    9.2116537    9.2116537    9.2116537    46.343113 
   10900    280.10966   -10480.124            0   -9646.0049    2778.3203    781.17722    9.2097927    9.2097927    9.2097927    33.333525 
   11000    302.56302   -10546.849            0   -9645.8679    1364.0778    781.29508    9.2102559    9.2102559    9.2102559    40.559113 
Loop time of 25.6806 on 16 procs for 1000 steps with 1000 atoms

Performance: 3.364 ns/day, 7.134 hours/ns, 38.940 timesteps/s
94.3% CPU use with 16 MPI tasks x no OpenMP threads

MPI task timing breakdown:
Section |  min time  |  avg time  |  max time  |%varavg| %total
---------------------------------------------------------------
Pair    | 2.0879     | 2.1832     | 2.3337     |   4.7 |  8.50
Neigh   | 0.79802    | 0.82821    | 0.87902    |   2.7 |  3.23
Comm    | 0.56019    | 0.76021    | 0.88646    |  10.6 |  2.96
Output  | 15.226     | 15.644     | 21.82      |  40.3 | 60.92
Modify  | 0.086615   | 6.2539     | 6.6727     |  63.7 | 24.35
Other   |            | 0.01066    |            |       |  0.04

Nlocal:    62.5 ave 68 max 59 min
Histogram: 1 3 3 2 3 0 1 2 0 1
Nghost:    1862.69 ave 1881 max 1843 min
Histogram: 2 2 1 2 1 2 0 0 3 3
Neighs:    0 ave 0 max 0 min
Histogram: 16 0 0 0 0 0 0 0 0 0
FullNghs:  18896.1 ave 20613 max 17897 min
Histogram: 2 4 1 4 1 0 1 2 0 1

Total # of neighbors = 302338
Ave neighs/atom = 302.338
Neighbor list builds = 1000
Dangerous builds not checked
Setting up Verlet run ...
  Unit style    : real
  Current step  : 11000
  Time step     : 1
Per MPI rank memory allocation (min/avg/max) = 4.578 | 4.578 | 4.579 Mbytes
Step Temp E_pair E_mol TotEng Press Volume Lx Ly Lz S/CPU 
   11000    302.56302   -10546.849            0   -9645.8679    1364.0778    781.29508    9.2102559    9.2102559    9.2102559            0 
   11100    306.07673   -10557.065            0   -9645.6203    -3717.994    781.45263    9.2108749    9.2108749    9.2108749    36.854225 
   11200    290.98794   -10510.888            0   -9644.3756   -9356.5086    781.48456    9.2110004    9.2110004    9.2110004    32.687009 
   11300    290.65638   -10508.485            0   -9642.9595   -10392.189    781.63107     9.211576     9.211576     9.211576    41.754299 
   11400    300.88951   -10538.673            0   -9642.6752    1759.6517    781.75374    9.2120578    9.2120578    9.2120578    31.090701 
   11500    292.25105   -10508.857            0   -9638.5832    6277.3204    782.06088    9.2132641    9.2132641    9.2132641    37.383692 
   11600    288.30655   -10493.466            0   -9634.9381   -1786.7012    782.76148    9.2160145    9.2160145    9.2160145    40.156081 
   11700     293.5005   -10505.765            0   -9631.7709   -3722.6107    783.36407    9.2183788    9.2183788    9.2183788    37.742699 
   11800    302.22254   -10527.857            0   -9627.8901   -4458.5252    783.97262    9.2207653    9.2207653    9.2207653    39.377583 
   11900    299.11335   -10512.614            0   -9621.9051    -3910.985    784.54508     9.223009     9.223009     9.223009    52.716267 
   12000    305.18646   -10525.947            0   -9617.1537   -6269.3086    784.94732     9.224585     9.224585     9.224585    42.080974 
Loop time of 26.0117 on 16 procs for 1000 steps with 1000 atoms

Performance: 3.322 ns/day, 7.225 hours/ns, 38.444 timesteps/s
94.2% CPU use with 16 MPI tasks x no OpenMP threads

MPI task timing breakdown:
Section |  min time  |  avg time  |  max time  |%varavg| %total
---------------------------------------------------------------
Pair    | 2.0741     | 2.1666     | 2.3287     |   4.8 |  8.33
Neigh   | 0.7991     | 0.83026    | 0.8678     |   2.1 |  3.19
Comm    | 0.56338    | 0.76254    | 0.88579    |   9.9 |  2.93
Output  | 15.413     | 15.841     | 22.167     |  41.0 | 60.90
Modify  | 0.074727   | 6.4006     | 6.8301     |  64.6 | 24.61
Other   |            | 0.01054    |            |       |  0.04

Nlocal:    62.5 ave 74 max 59 min
Histogram: 4 2 6 2 1 0 0 0 0 1
Nghost:    1865.25 ave 1891 max 1841 min
Histogram: 2 1 3 1 0 3 2 1 0 3
Neighs:    0 ave 0 max 0 min
Histogram: 16 0 0 0 0 0 0 0 0 0
FullNghs:  18813.5 ave 22604 max 17674 min
Histogram: 4 5 3 3 0 0 0 0 0 1

Total # of neighbors = 301016
Ave neighs/atom = 301.016
Neighbor list builds = 1000
Dangerous builds not checked
Setting up Verlet run ...
  Unit style    : real
  Current step  : 12000
  Time step     : 1
Per MPI rank memory allocation (min/avg/max) = 4.578 | 4.578 | 4.579 Mbytes
Step Temp E_pair E_mol TotEng Press Volume Lx Ly Lz S/CPU 
   12000    305.18646   -10525.947            0   -9617.1537   -6269.3086    784.94732     9.224585     9.224585     9.224585            0 
   12100    303.66911   -10517.932            0   -9613.6576   -8084.2604    784.99395    9.2247677    9.2247677    9.2247677    32.897904 
   12200    307.26424   -10524.159            0   -9609.1786    1482.8304    784.56143    9.2230731    9.2230731    9.2230731    45.207633 
   12300    295.96802   -10482.459            0   -9601.1167   -12383.929    783.63692    9.2194489    9.2194489    9.2194489    30.539937 
   12400     302.1349   -10492.116            0   -9592.4099    6689.2395    782.18886    9.2137666    9.2137666    9.2137666    39.202779 
   12500    307.58152   -10496.649            0   -9580.7234    6191.9967    780.69654    9.2079034    9.2079034    9.2079034    36.398351 
   12600    307.45601   -10481.962            0   -9566.4106    6663.7643    779.66066     9.203829     9.203829     9.203829    43.365795 
   12700    294.36092   -10428.123            0   -9551.5667    5072.6141    779.09347    9.2015966    9.2015966    9.2015966    36.493432 
   12800    313.79747   -10474.611            0   -9540.1754    18872.736    779.26917    9.2022882    9.2022882    9.2022882    43.551382 
   12900    317.22533   -10476.956            0    -9532.313    15095.003    780.27377    9.2062409    9.2062409    9.2062409    44.163203 
   13000    306.99227   -10441.287            0   -9527.1164    18325.178    782.23428     9.213945     9.213945     9.213945    34.818274 
Loop time of 26.3031 on 16 procs for 1000 steps with 1000 atoms

Performance: 3.285 ns/day, 7.306 hours/ns, 38.018 timesteps/s
94.2% CPU use with 16 MPI tasks x no OpenMP threads

MPI task timing breakdown:
Section |  min time  |  avg time  |  max time  |%varavg| %total
---------------------------------------------------------------
Pair    | 2.0936     | 2.1763     | 2.2555     |   4.0 |  8.27
Neigh   | 0.79598    | 0.82965    | 0.85907    |   2.1 |  3.15
Comm    | 0.61637    | 0.72556    | 0.82862    |   8.9 |  2.76
Output  | 15.873     | 16.294     | 22.501     |  39.7 | 61.95
Modify  | 0.058333   | 6.2668     | 6.6881     |  64.0 | 23.83
Other   |            | 0.01061    |            |       |  0.04

Nlocal:    62.5 ave 66 max 56 min
Histogram: 1 0 2 1 0 0 4 0 2 6
Nghost:    1857.81 ave 1870 max 1843 min
Histogram: 2 0 1 1 3 2 2 2 0 3
Neighs:    0 ave 0 max 0 min
Histogram: 16 0 0 0 0 0 0 0 0 0
FullNghs:  18867.6 ave 20199 max 16757 min
Histogram: 1 2 1 0 0 2 2 2 3 3

Total # of neighbors = 301882
Ave neighs/atom = 301.882
Neighbor list builds = 1000
Dangerous builds not checked
Setting up Verlet run ...
  Unit style    : real
  Current step  : 13000
  Time step     : 1
Per MPI rank memory allocation (min/avg/max) = 4.578 | 4.578 | 4.579 Mbytes
Step Temp E_pair E_mol TotEng Press Volume Lx Ly Lz S/CPU 
   13000    306.99227   -10441.287            0   -9527.1164    18325.178    782.23428     9.213945     9.213945     9.213945            0 
   13100    318.04815   -10473.922            0   -9526.8294    11828.454    785.17377     9.225472     9.225472     9.225472    17.439612 
   13200    315.91807   -10469.554            0   -9528.8034   -2079.8245    788.80075    9.2396554    9.2396554    9.2396554    26.861273 
   13300    316.95698   -10475.943            0   -9532.0988   -5239.5923    792.65054    9.2546625    9.2546625    9.2546625    10.455213 
   13400    299.05354   -10426.143            0   -9535.6128    -10285.49     796.4335    9.2693619    9.2693619    9.2693619    8.8636641 
   13500    303.66752    -10445.75            0   -9541.4796   -16833.722     800.0462    9.2833564    9.2833564    9.2833564    11.586722 
   13600    301.08195   -10443.377            0    -9546.806    -27103.52    802.63602    9.2933626    9.2933626    9.2933626    10.480525 
   13700    297.71113   -10437.951            0   -9551.4181   -14110.973    803.11096    9.2951953    9.2951953    9.2951953    12.830366 
   13800    298.32703   -10445.043            0   -9556.6765    -12943.83    801.89251    9.2904921    9.2904921    9.2904921    34.790862 
   13900    303.29916    -10466.19            0   -9563.0174   -14866.341    799.13012    9.2798118    9.2798118    9.2798118    47.573424 
   14000    287.13862   -10420.252            0   -9565.2018    5603.6649    794.96716    9.2636697    9.2636697    9.2636697    30.938618 
Loop time of 64.4782 on 16 procs for 1000 steps with 1000 atoms

Performance: 1.340 ns/day, 17.911 hours/ns, 15.509 timesteps/s
93.9% CPU use with 16 MPI tasks x no OpenMP threads

MPI task timing breakdown:
Section |  min time  |  avg time  |  max time  |%varavg| %total
---------------------------------------------------------------
Pair    | 1.5999     | 1.7954     | 2.0286     |   9.4 |  2.78
Neigh   | 0.67923    | 0.73225    | 0.80878    |   4.8 |  1.14
Comm    | 0.75778    | 1.0677     | 1.3153     |  16.1 |  1.66
Output  | 38.795     | 40.177     | 60.815     |  84.1 | 62.31
Modify  | 0.057667   | 20.697     | 22.079     | 117.1 | 32.10
Other   |            | 0.009388   |            |       |  0.01

Nlocal:    62.5 ave 72 max 57 min
Histogram: 1 2 4 3 2 1 1 1 0 1
Nghost:    1836.62 ave 1850 max 1820 min
Histogram: 1 0 1 1 3 3 3 2 0 2
Neighs:    0 ave 0 max 0 min
Histogram: 16 0 0 0 0 0 0 0 0 0
FullNghs:  18565 ave 21607 max 16792 min
Histogram: 1 3 4 3 1 2 1 0 0 1

Total # of neighbors = 297040
Ave neighs/atom = 297.04
Neighbor list builds = 1000
Dangerous builds not checked
Setting up Verlet run ...
  Unit style    : real
  Current step  : 14000
  Time step     : 1
Per MPI rank memory allocation (min/avg/max) = 4.578 | 4.578 | 4.579 Mbytes
Step Temp E_pair E_mol TotEng Press Volume Lx Ly Lz S/CPU 
   14000    287.13862   -10420.252            0   -9565.2018    5603.6649    794.96716    9.2636697    9.2636697    9.2636697            0 
   14100    294.98536   -10446.411            0   -9567.9946   -2977.1901      790.404     9.245911     9.245911     9.245911    40.982496 
   14200    318.18353   -10519.297            0   -9571.8012    10217.805     785.7735    9.2278202    9.2278202    9.2278202    38.755448 
   14300    308.97109   -10494.555            0   -9574.4916   -8612.2472    781.69282    9.2118185    9.2118185    9.2118185        44.43 
   14400    307.35988    -10493.45            0   -9578.1846    11286.418    777.88589      9.19684      9.19684      9.19684    38.606294 
   14500    302.85171   -10483.047            0   -9581.2062    5735.4186    774.96013    9.1852952    9.1852952    9.1852952    34.100467 
   14600     303.9797    -10491.42            0   -9586.2204    20680.739    772.77538    9.1766554    9.1766554    9.1766554    44.310323 
   14700    297.37522   -10476.073            0   -9590.5405    19966.902    771.92354    9.1732824    9.1732824    9.1732824    36.344766 
   14800    293.47987   -10469.185            0   -9595.2515    26491.605    772.16808    9.1742509    9.1742509    9.1742509    37.198094 
   14900     303.7938   -10505.445            0   -9600.7986    13087.718    773.73058    9.1804349    9.1804349    9.1804349    36.708148 
   15000    305.68505   -10514.338            0   -9604.0606     6577.057    776.68408    9.1921013    9.1921013    9.1921013    39.304498 
Loop time of 25.7589 on 16 procs for 1000 steps with 1000 atoms

Performance: 3.354 ns/day, 7.155 hours/ns, 38.822 timesteps/s
94.3% CPU use with 16 MPI tasks x no OpenMP threads

MPI task timing breakdown:
Section |  min time  |  avg time  |  max time  |%varavg| %total
---------------------------------------------------------------
Pair    | 1.9895     | 2.0936     | 2.2544     |   4.5 |  8.13
Neigh   | 0.77592    | 0.80231    | 0.84494    |   2.1 |  3.11
Comm    | 0.7415     | 0.93182    | 1.0619     |   8.5 |  3.62
Output  | 15.585     | 15.983     | 21.861     |  38.0 | 62.05
Modify  | 0.0597     | 5.9387     | 6.3362     |  62.3 | 23.06
Other   |            | 0.009757   |            |       |  0.04

Nlocal:    62.5 ave 68 max 57 min
Histogram: 1 1 1 2 3 3 1 3 0 1
Nghost:    1865.31 ave 1897 max 1846 min
Histogram: 4 2 1 2 2 3 0 0 0 2
Neighs:    0 ave 0 max 0 min
Histogram: 16 0 0 0 0 0 0 0 0 0
FullNghs:  19000.2 ave 20846 max 17114 min
Histogram: 1 0 2 1 4 3 3 1 0 1

Total # of neighbors = 304004
Ave neighs/atom = 304.004
Neighbor list builds = 1000
Dangerous builds not checked
Setting up Verlet run ...
  Unit style    : real
  Current step  : 15000
  Time step     : 1
Per MPI rank memory allocation (min/avg/max) = 4.578 | 4.578 | 4.579 Mbytes
Step Temp E_pair E_mol TotEng Press Volume Lx Ly Lz S/CPU 
   15000    305.68505   -10514.338            0   -9604.0606     6577.057    776.68408    9.1921013    9.1921013    9.1921013            0 
   15100    289.97558   -10468.117            0   -9604.6189    16264.585    780.54847    9.2073212    9.2073212    9.2073212    27.397379 
   15200    294.30103   -10481.867            0   -9605.4888   -14831.172    784.67761    9.2235284    9.2235284    9.2235284    34.935231 
   15300    290.45142   -10469.697            0   -9604.7822   -8258.4777    787.92953    9.2362524    9.2362524    9.2362524    34.205268 
   15400    304.52192   -10511.722            0   -9604.9075   -2922.7961     790.2079    9.2451463    9.2451463    9.2451463    41.042604 
   15500     294.2108   -10478.943            0   -9602.8333   -3517.9982     792.0298    9.2522461    9.2522461    9.2522461    33.909809 
   15600    289.04955    -10462.12            0   -9601.3794   -3532.4751     793.6007    9.2583589    9.2583589    9.2583589    41.598025 
   15700    295.88318   -10481.576            0    -9600.486   -21739.176    794.37134    9.2613548    9.2613548    9.2613548    42.433289 
   15800    302.12624   -10496.937            0   -9597.2569   -20390.009    793.71054    9.2587861    9.2587861    9.2587861    31.328784 
   15900      297.766   -10481.952            0   -9595.2554   -7347.3532    791.97592    9.2520363    9.2520363    9.2520363    42.855238 
   16000    299.79582   -10485.954            0   -9593.2133   -2799.9024    789.64895     9.242966     9.242966     9.242966    32.482424 
Loop time of 28.186 on 16 procs for 1000 steps with 1000 atoms

Performance: 3.065 ns/day, 7.829 hours/ns, 35.479 timesteps/s
94.2% CPU use with 16 MPI tasks x no OpenMP threads

MPI task timing breakdown:
Section |  min time  |  avg time  |  max time  |%varavg| %total
---------------------------------------------------------------
Pair    | 1.9626     | 2.0406     | 2.1145     |   3.5 |  7.24
Neigh   | 0.76779    | 0.79728    | 0.82669    |   1.9 |  2.83
Comm    | 0.71062    | 0.80471    | 0.91287    |   7.3 |  2.85
Output  | 17.053     | 17.523     | 24.473     |  42.9 | 62.17
Modify  | 0.060292   | 7.0106     | 7.4804     |  67.8 | 24.87
Other   |            | 0.009654   |            |       |  0.03

Nlocal:    62.5 ave 68 max 56 min
Histogram: 1 2 0 0 3 4 2 1 1 2
Nghost:    1857.44 ave 1874 max 1837 min
Histogram: 2 0 1 0 4 2 1 2 2 2
Neighs:    0 ave 0 max 0 min
Histogram: 16 0 0 0 0 0 0 0 0 0
FullNghs:  18687.2 ave 20531 max 16672 min
Histogram: 1 2 0 1 2 5 2 1 0 2

Total # of neighbors = 298996
Ave neighs/atom = 298.996
Neighbor list builds = 1000
Dangerous builds not checked
Setting up Verlet run ...
  Unit style    : real
  Current step  : 16000
  Time step     : 1
Per MPI rank memory allocation (min/avg/max) = 4.578 | 4.578 | 4.579 Mbytes
Step Temp E_pair E_mol TotEng Press Volume Lx Ly Lz S/CPU 
   16000    299.79582   -10485.954            0   -9593.2133   -2799.9024    789.64895     9.242966     9.242966     9.242966            0 
   16100    303.53265   -10494.855            0   -9590.9868   -2980.7792    787.27738    9.2337035    9.2337035    9.2337035      41.3212 
   16200    310.30786   -10511.428            0    -9587.384    7600.9953    784.92273    9.2244887    9.2244887    9.2244887    45.167156 
   16300    303.25073   -10487.845            0   -9584.8157    10086.475     782.8109    9.2162084    9.2162084    9.2162084    34.460354 
   16400    297.36978   -10466.714            0   -9581.1979    5902.0049    781.28397    9.2102122    9.2102122    9.2102122    36.412954 
   16500    310.47313   -10501.941            0   -9577.4048     4554.598    780.45028    9.2069351    9.2069351    9.2069351     39.13429 
   16600    305.52174   -10483.442            0   -9573.6508    7925.2107    780.23434    9.2060858    9.2060858    9.2060858    45.678098 
   16700    309.18844   -10490.647            0   -9569.9364   -3593.1752     780.4978    9.2071219    9.2071219    9.2071219    36.196096 
   16800    307.78188   -10482.336            0   -9565.8139    2799.5913    780.82578    9.2084114    9.2084114    9.2084114    37.381192 
   16900    299.35201   -10454.672            0    -9563.253    16777.047    781.18463    9.2098218    9.2098218    9.2098218    43.102173 
   17000    313.47716   -10498.152            0   -9564.6705    16532.753    782.09532    9.2133993    9.2133993    9.2133993    39.028912 
Loop time of 25.3469 on 16 procs for 1000 steps with 1000 atoms

Performance: 3.409 ns/day, 7.041 hours/ns, 39.452 timesteps/s
94.3% CPU use with 16 MPI tasks x no OpenMP threads

MPI task timing breakdown:
Section |  min time  |  avg time  |  max time  |%varavg| %total
---------------------------------------------------------------
Pair    | 1.9543     | 2.0681     | 2.1719     |   4.2 |  8.16
Neigh   | 0.76471    | 0.79916    | 0.82942    |   1.8 |  3.15
Comm    | 0.77356    | 0.88801    | 1.0372     |   7.9 |  3.50
Output  | 15.441     | 15.825     | 21.502     |  36.8 | 62.43
Modify  | 0.078016   | 5.7571     | 6.1431     |  61.1 | 22.71
Other   |            | 0.009693   |            |       |  0.04

Nlocal:    62.5 ave 67 max 57 min
Histogram: 1 0 2 1 2 4 0 2 0 4
Nghost:    1859.75 ave 1885 max 1844 min
Histogram: 3 1 4 3 1 0 2 0 0 2
Neighs:    0 ave 0 max 0 min
Histogram: 16 0 0 0 0 0 0 0 0 0
FullNghs:  18874.8 ave 20369 max 17139 min
Histogram: 1 0 3 0 4 2 2 0 1 3

Total # of neighbors = 301996
Ave neighs/atom = 301.996
Neighbor list builds = 1000
Dangerous builds not checked
Setting up Verlet run ...
  Unit style    : real
  Current step  : 17000
  Time step     : 1
Per MPI rank memory allocation (min/avg/max) = 4.578 | 4.578 | 4.579 Mbytes
Step Temp E_pair E_mol TotEng Press Volume Lx Ly Lz S/CPU 
   17000    313.47716   -10498.152            0   -9564.6705    16532.753    782.09532    9.2133993    9.2133993    9.2133993            0 
   17100    315.78289   -10506.796            0   -9566.4482    6741.9699    783.74833    9.2198858    9.2198858    9.2198858    46.290714 
   17200    305.48562   -10480.149            0   -9570.4652    1060.0978    785.58664    9.2270887    9.2270887    9.2270887    41.380159 
   17300    304.93516   -10483.604            0   -9575.5591   -83.216392    787.66525    9.2352196    9.2352196    9.2352196    37.713877 
   17400    297.01218   -10465.571            0   -9581.1192   -13856.554    789.33603    9.2417449    9.2417449    9.2417449     42.37458 
   17500     295.0831   -10466.471            0   -9587.7635   -9133.7829    790.16081    9.2449627    9.2449627    9.2449627    40.669176 
   17600    305.19885   -10503.679            0   -9594.8491    -23037.43    790.02992    9.2444522    9.2444522    9.2444522    44.944775 
   17700    304.78082   -10508.947            0   -9601.3616   -12861.969    788.78586    9.2395972    9.2395972    9.2395972    41.677338 
   17800    292.91084   -10478.613            0   -9606.3742   -13227.313    786.78715    9.2317865    9.2317865    9.2317865    34.739201 
   17900    288.87035   -10473.185            0   -9612.9785   -13822.546    784.10408    9.2212806    9.2212806    9.2212806     43.31825 
   18000    303.41946    -10523.07            0   -9619.5389   -7864.2859    780.71669    9.2079826    9.2079826    9.2079826    38.464738 
Loop time of 24.4584 on 16 procs for 1000 steps with 1000 atoms

Performance: 3.533 ns/day, 6.794 hours/ns, 40.886 timesteps/s
94.3% CPU use with 16 MPI tasks x no OpenMP threads

MPI task timing breakdown:
Section |  min time  |  avg time  |  max time  |%varavg| %total
---------------------------------------------------------------
Pair    | 1.8462     | 2.0629     | 2.1717     |   6.2 |  8.43
Neigh   | 0.74393    | 0.80418    | 0.84672    |   3.1 |  3.29
Comm    | 0.64646    | 0.78681    | 1.0631     |  13.0 |  3.22
Output  | 14.081     | 14.498     | 20.684     |  41.9 | 59.28
Modify  | 0.10797    | 6.2966     | 6.7154     |  63.7 | 25.74
Other   |            | 0.0097     |            |       |  0.04

Nlocal:    62.5 ave 68 max 59 min
Histogram: 1 2 5 0 3 1 3 0 0 1
Nghost:    1870.5 ave 1892 max 1853 min
Histogram: 3 3 0 1 1 2 3 1 0 2
Neighs:    0 ave 0 max 0 min
Histogram: 16 0 0 0 0 0 0 0 0 0
FullNghs:  18888.2 ave 20614 max 17872 min
Histogram: 2 3 3 1 2 1 3 0 0 1

Total # of neighbors = 302212
Ave neighs/atom = 302.212
Neighbor list builds = 1000
Dangerous builds not checked
Setting up Verlet run ...
  Unit style    : real
  Current step  : 18000
  Time step     : 1
Per MPI rank memory allocation (min/avg/max) = 4.578 | 4.578 | 4.579 Mbytes
Step Temp E_pair E_mol TotEng Press Volume Lx Ly Lz S/CPU 
   18000    303.41946    -10523.07            0   -9619.5389   -7864.2859    780.71669    9.2079826    9.2079826    9.2079826            0 
   18100    307.99906   -10542.439            0   -9625.2702    7545.3463    777.15933    9.1939758    9.1939758    9.1939758    47.774593 
   18200    304.16431   -10538.662            0   -9632.9122    17619.768    774.17312    9.1821848    9.1821848    9.1821848    44.095971 
   18300    295.85832   -10520.784            0   -9639.7684    23394.815    772.40789    9.1752006    9.1752006    9.1752006    34.025232 
   18400    304.14207   -10554.483            0   -9648.7999    18425.622    772.24179    9.1745428    9.1745428    9.1745428     43.22582 
   18500     305.9074   -10567.081            0   -9656.1412    9136.2803    773.43792    9.1792772    9.1792772    9.1792772    35.935213 
   18600    304.76737   -10570.037            0   -9662.4914   -227.72894    775.12355    9.1859408    9.1859408    9.1859408    45.708382 
   18700    296.66086   -10551.333            0   -9667.9274    14239.204    776.79917    9.1925553    9.1925553    9.1925553    31.427343 
   18800    297.24548   -10558.056            0   -9672.9093   -15964.856    778.24228    9.1982443    9.1982443    9.1982443    45.684784 
   18900    292.90803   -10547.624            0   -9675.3942   -4165.6479    778.97428    9.2011273    9.2011273    9.2011273    42.686217 
   19000    286.81615   -10530.767            0   -9676.6773   -1095.5341    779.39738    9.2027929    9.2027929    9.2027929    41.509934 
Loop time of 24.7066 on 16 procs for 1000 steps with 1000 atoms

Performance: 3.497 ns/day, 6.863 hours/ns, 40.475 timesteps/s
94.3% CPU use with 16 MPI tasks x no OpenMP threads

MPI task timing breakdown:
Section |  min time  |  avg time  |  max time  |%varavg| %total
---------------------------------------------------------------
Pair    | 2.0198     | 2.1307     | 2.2609     |   4.7 |  8.62
Neigh   | 0.7837     | 0.81193    | 0.85524    |   2.3 |  3.29
Comm    | 0.69125    | 0.85786    | 0.98923    |   9.2 |  3.47
Output  | 15.02      | 15.387     | 20.816     |  35.7 | 62.28
Modify  | 0.081688   | 5.5091     | 5.8787     |  59.7 | 22.30
Other   |            | 0.009785   |            |       |  0.04

Nlocal:    62.5 ave 68 max 57 min
Histogram: 1 2 2 2 1 1 2 3 0 2
Nghost:    1865.25 ave 1883 max 1845 min
Histogram: 1 0 2 4 1 0 4 1 1 2
Neighs:    0 ave 0 max 0 min
Histogram: 16 0 0 0 0 0 0 0 0 0
FullNghs:  18964.1 ave 20813 max 17344 min
Histogram: 1 2 3 1 2 2 1 2 1 1

Total # of neighbors = 303426
Ave neighs/atom = 303.426
Neighbor list builds = 1000
Dangerous builds not checked
Setting up Verlet run ...
  Unit style    : real
  Current step  : 19000
  Time step     : 1
Per MPI rank memory allocation (min/avg/max) = 4.578 | 4.578 | 4.579 Mbytes
Step Temp E_pair E_mol TotEng Press Volume Lx Ly Lz S/CPU 
   19000    286.81615   -10530.767            0   -9676.6773   -1095.5341    779.39738    9.2027929    9.2027929    9.2027929            0 
   19100    292.73105   -10548.685            0    -9676.982   -5832.3855    779.36331    9.2026588    9.2026588    9.2026588    51.763326 
   19200    294.47788   -10552.408            0   -9675.5033   -11299.901    778.83123     9.200564     9.200564     9.200564    41.206268 
   19300    284.70126   -10518.406            0   -9670.6143   -6199.9818     777.8133    9.1965539    9.1965539    9.1965539    40.180452 
   19400    292.48203   -10534.206            0   -9663.2441   -4285.2013    776.76869    9.1924351    9.1924351    9.1924351     37.79674 
   19500    308.55002   -10568.391            0   -9649.5817   -628.20764    775.65874    9.1880545    9.1880545    9.1880545    37.162853 
   19600    305.39122   -10538.857            0   -9629.4542    595.94638    774.46955    9.1833566    9.1833566    9.1833566    35.443249 
   19700    304.32882   -10516.252            0   -9610.0122    6685.1359    773.69909    9.1803103    9.1803103    9.1803103    38.958375 
   19800     305.4442   -10507.082            0   -9597.5209    19922.998    773.57899    9.1798353    9.1798353    9.1798353    41.065009 
   19900    306.25971   -10501.153            0   -9589.1637    4921.3891    774.54681     9.183662     9.183662     9.183662    37.026347 
   20000    303.41205   -10488.457            0   -9584.9482    21267.286      776.618    9.1918406    9.1918406    9.1918406    42.978929 
Loop time of 25.035 on 16 procs for 1000 steps with 1000 atoms

Performance: 3.451 ns/day, 6.954 hours/ns, 39.944 timesteps/s
94.3% CPU use with 16 MPI tasks x no OpenMP threads

MPI task timing breakdown:
Section |  min time  |  avg time  |  max time  |%varavg| %total
---------------------------------------------------------------
Pair    | 1.988      | 2.1392     | 2.2289     |   4.2 |  8.54
Neigh   | 0.77371    | 0.81638    | 0.86313    |   2.3 |  3.26
Comm    | 0.66292    | 0.79884    | 0.99231    |   8.9 |  3.19
Output  | 15.346     | 15.717     | 21.196     |  35.7 | 62.78
Modify  | 0.074231   | 5.5541     | 5.9253     |  60.0 | 22.19
Other   |            | 0.009755   |            |       |  0.04

Nlocal:    62.5 ave 69 max 57 min
Histogram: 2 0 0 4 2 4 2 1 0 1
Nghost:    1865.88 ave 1885 max 1843 min
Histogram: 1 1 0 2 2 2 4 1 2 1
Neighs:    0 ave 0 max 0 min
Histogram: 16 0 0 0 0 0 0 0 0 0
FullNghs:  19007.6 ave 21147 max 17247 min
Histogram: 2 0 2 2 5 2 1 1 0 1

Total # of neighbors = 304122
Ave neighs/atom = 304.122
Neighbor list builds = 1000
Dangerous builds not checked
Setting up Verlet run ...
  Unit style    : real
  Current step  : 20000
  Time step     : 1
Per MPI rank memory allocation (min/avg/max) = 4.578 | 4.578 | 4.579 Mbytes
Step Temp E_pair E_mol TotEng Press Volume Lx Ly Lz S/CPU 
   20000    303.41205   -10488.457            0   -9584.9482    21267.286      776.618    9.1918406    9.1918406    9.1918406            0 
   20100    295.77784    -10463.78            0   -9583.0038    4142.4571    779.90381    9.2047857    9.2047857    9.2047857    37.514773 
   20200    295.76855   -10462.707            0   -9581.9588   -3265.9836    783.68815    9.2196498    9.2196498    9.2196498    45.652526 
   20300     304.0546   -10486.914            0   -9581.4916    -2793.654    787.58735    9.2349152    9.2349152    9.2349152    42.949293 
   20400     309.5852   -10502.711            0   -9580.8195   -8214.4461    791.06553    9.2484898    9.2484898    9.2484898    40.384258 
   20500    298.98906   -10471.134            0   -9580.7954   -7014.1794    793.90747    9.2595518    9.2595518    9.2595518    43.953929 
   20600    299.53714   -10474.295            0    -9582.325   -19508.736    796.01838    9.2677512    9.2677512    9.2677512    39.772893 
   20700    298.66727   -10473.548            0   -9584.1684   -9678.6543    797.06289     9.271803     9.271803     9.271803    35.213902 
   20800     303.8854   -10492.316            0   -9587.3977   -18772.274    796.90137    9.2711767    9.2711767    9.2711767    43.938424 
   20900    299.76578   -10484.876            0   -9592.2247    -21796.66    795.28059     9.264887     9.264887     9.264887    32.024299 
   21000    308.01398   -10515.315            0   -9598.1016   -14584.937    792.29422    9.2532756    9.2532756    9.2532756    45.757026 
Loop time of 24.8738 on 16 procs for 1000 steps with 1000 atoms

Performance: 3.474 ns/day, 6.909 hours/ns, 40.203 timesteps/s
94.3% CPU use with 16 MPI tasks x no OpenMP threads

MPI task timing breakdown:
Section |  min time  |  avg time  |  max time  |%varavg| %total
---------------------------------------------------------------
Pair    | 1.924      | 2.0399     | 2.1578     |   3.9 |  8.20
Neigh   | 0.76763    | 0.80281    | 0.84284    |   2.1 |  3.23
Comm    | 0.62498    | 0.78276    | 0.92239    |   8.3 |  3.15
Output  | 14.621     | 15.035     | 21.171     |  40.9 | 60.45
Modify  | 0.067329   | 6.2033     | 6.6173     |  63.6 | 24.94
Other   |            | 0.009683   |            |       |  0.04

Nlocal:    62.5 ave 67 max 57 min
Histogram: 1 1 1 0 2 3 1 3 2 2
Nghost:    1845.75 ave 1858 max 1834 min
Histogram: 2 0 3 2 0 4 1 1 1 2
Neighs:    0 ave 0 max 0 min
Histogram: 16 0 0 0 0 0 0 0 0 0
FullNghs:  18635.2 ave 19894 max 17008 min
Histogram: 2 1 0 1 2 3 0 3 2 2

Total # of neighbors = 298164
Ave neighs/atom = 298.164
Neighbor list builds = 1000
Dangerous builds not checked
Setting up Verlet run ...
  Unit style    : real
  Current step  : 21000
  Time step     : 1
Per MPI rank memory allocation (min/avg/max) = 4.578 | 4.578 | 4.579 Mbytes
Step Temp E_pair E_mol TotEng Press Volume Lx Ly Lz S/CPU 
   21000    308.01398   -10515.315            0   -9598.1016   -14584.937    792.29422    9.2532756    9.2532756    9.2532756            0 
   21100    293.83699   -10477.799            0   -9602.8026   -17809.436    788.87174    9.2399325    9.2399325    9.2399325    41.544176 
   21200    301.14942   -10506.577            0   -9609.8051    173.94224    785.04337    9.2249613    9.2249613    9.2249613    45.004353 
   21300    288.96056   -10475.909            0   -9615.4337    13256.114    781.52942    9.2111766    9.2111766    9.2111766    26.838144 
   21400     300.8005   -10520.381            0    -9624.648    11365.794    779.28653    9.2023566    9.2023566    9.2023566    46.379847 
   21500    309.92563   -10557.911            0   -9635.0056    11691.507    778.22486    9.1981757    9.1981757    9.1981757    37.268076 
   21600    283.01214   -10488.237            0   -9645.4749    3919.8744    778.50196    9.1992673    9.1992673    9.1992673    33.272993 
   21700    300.40185   -10550.074            0   -9655.5288    8421.7991     779.4941    9.2031735    9.2031735    9.2031735    45.483164 
   21800    290.42024   -10529.196            0   -9664.3741    768.31877    780.91606    9.2087663    9.2087663    9.2087663    41.034893 
   21900     292.9909   -10543.622            0   -9671.1452   -4956.3822    782.10527    9.2134384    9.2134384    9.2134384     44.82686 
   22000    294.68116   -10552.419            0   -9674.9091   -9209.4127    782.94339    9.2167284    9.2167284    9.2167284    48.539726 
Loop time of 25.1265 on 16 procs for 1000 steps with 1000 atoms

Performance: 3.439 ns/day, 6.980 hours/ns, 39.799 timesteps/s
94.3% CPU use with 16 MPI tasks x no OpenMP threads

MPI task timing breakdown:
Section |  min time  |  avg time  |  max time  |%varavg| %total
---------------------------------------------------------------
Pair    | 1.9239     | 2.0651     | 2.2419     |   4.8 |  8.22
Neigh   | 0.77764    | 0.80305    | 0.84523    |   2.1 |  3.20
Comm    | 0.64456    | 0.87072    | 1.038      |   9.4 |  3.47
Output  | 15.3       | 15.679     | 21.267     |  36.4 | 62.40
Modify  | 0.11773    | 5.699      | 6.0774     |  60.4 | 22.68
Other   |            | 0.009696   |            |       |  0.04

Nlocal:    62.5 ave 69 max 55 min
Histogram: 1 0 1 1 2 6 1 2 1 1
Nghost:    1865.19 ave 1875 max 1849 min
Histogram: 1 2 0 0 1 1 3 2 5 1
Neighs:    0 ave 0 max 0 min
Histogram: 16 0 0 0 0 0 0 0 0 0
FullNghs:  18845.2 ave 20939 max 16483 min
Histogram: 1 0 1 2 5 1 3 1 1 1

Total # of neighbors = 301524
Ave neighs/atom = 301.524
Neighbor list builds = 1000
Dangerous builds not checked
Setting up Verlet run ...
  Unit style    : real
  Current step  : 22000
  Time step     : 1
Per MPI rank memory allocation (min/avg/max) = 4.578 | 4.578 | 4.579 Mbytes
Step Temp E_pair E_mol TotEng Press Volume Lx Ly Lz S/CPU 
   22000    294.68116   -10552.419            0   -9674.9091   -9209.4127    782.94339    9.2167284    9.2167284    9.2167284            0 
   22100    297.80152   -10565.103            0   -9678.3006   -11790.715    783.07534    9.2172461    9.2172461    9.2172461    38.723487 
   22200     291.3445   -10547.305            0   -9679.7311    -6249.297     782.4214    9.2146796    9.2146796    9.2146796    48.881495 
   22300    294.78248   -10557.555            0    -9679.743   -6278.0644    781.34624    9.2104569    9.2104569    9.2104569     35.16202 
   22400      296.533   -10561.067            0   -9678.0428   -5297.7439    780.09707    9.2055459    9.2055459    9.2055459    47.386661 
   22500    300.92122   -10569.953            0   -9673.8612   -3447.8312    778.83691    9.2005864    9.2005864    9.2005864    37.164093 
   22600    300.55396   -10564.345            0   -9669.3468      7435.97    777.51866    9.1953926    9.1953926    9.1953926    33.241696 
   22700    301.42156   -10559.176            0   -9661.5939    5700.9459    776.09697    9.1897845    9.1897845    9.1897845     39.61339 
   22800    291.86425   -10519.198            0   -9650.0765    6338.4244    775.12715     9.185955     9.185955     9.185955    43.018974 
   22900    296.95327   -10519.202            0   -9634.9259    5302.4255     774.4327     9.183211     9.183211     9.183211     38.99468 
   23000    319.88019   -10568.366            0   -9615.8176    11549.726    774.22664    9.1823964    9.1823964    9.1823964    37.793578 
Loop time of 25.3409 on 16 procs for 1000 steps with 1000 atoms

Performance: 3.410 ns/day, 7.039 hours/ns, 39.462 timesteps/s
94.3% CPU use with 16 MPI tasks x no OpenMP threads

MPI task timing breakdown:
Section |  min time  |  avg time  |  max time  |%varavg| %total
---------------------------------------------------------------
Pair    | 1.9527     | 2.0882     | 2.2242     |   4.6 |  8.24
Neigh   | 0.76911    | 0.80419    | 0.83575    |   2.1 |  3.17
Comm    | 0.68747    | 0.85777    | 1.0287     |   9.0 |  3.38
Output  | 14.507     | 14.949     | 21.501     |  43.8 | 58.99
Modify  | 0.083665   | 6.6322     | 7.0742     |  65.7 | 26.17
Other   |            | 0.009755   |            |       |  0.04

Nlocal:    62.5 ave 66 max 59 min
Histogram: 2 3 2 0 1 1 0 2 3 2
Nghost:    1866.81 ave 1889 max 1845 min
Histogram: 1 1 2 3 0 3 2 2 0 2
Neighs:    0 ave 0 max 0 min
Histogram: 16 0 0 0 0 0 0 0 0 0
FullNghs:  19064.9 ave 20273 max 17886 min
Histogram: 2 3 0 3 0 1 2 0 3 2

Total # of neighbors = 305038
Ave neighs/atom = 305.038
Neighbor list builds = 1000
Dangerous builds not checked
Setting up Verlet run ...
  Unit style    : real
  Current step  : 23000
  Time step     : 1
Per MPI rank memory allocation (min/avg/max) = 4.578 | 4.578 | 4.579 Mbytes
Step Temp E_pair E_mol TotEng Press Volume Lx Ly Lz S/CPU 
   23000    319.88019   -10568.366            0   -9615.8176    11549.726    774.22664    9.1823964    9.1823964    9.1823964            0 
   23100    303.44701   -10501.138            0   -9597.5246    5187.5739    774.39918    9.1830785    9.1830785    9.1830785    40.458926 
   23200    310.20478   -10509.543            0    -9585.806    4931.5874    774.72597      9.18437      9.18437      9.18437    36.897092 
   23300    312.57399   -10509.607            0    -9578.815    4039.8408    775.48889    9.1873838    9.1873838    9.1873838    37.557781 
   23400    306.81046   -10490.151            0   -9576.5219   -4110.7145    776.70452    9.1921819    9.1921819    9.1921819    38.234339 
   23500    295.33823   -10454.943            0   -9575.4765    392.63633    778.34086    9.1986327    9.1986327    9.1986327    41.052317 
   23600    300.41079   -10469.612            0   -9575.0401     -11898.6    779.99933    9.2051614    9.2051614    9.2051614    44.887218 
   23700    300.68186   -10471.311            0   -9575.9321   -14451.442    781.59114    9.2114191    9.2114191    9.2114191    36.176464 
   23800    305.58153   -10487.606            0   -9577.6364   -6980.3519     782.6842    9.2157112    9.2157112    9.2157112    44.155937 
   23900    306.42859   -10492.445            0   -9579.9526   -7094.9536    783.58327    9.2192385    9.2192385    9.2192385    45.079767 
   24000    303.42347   -10485.412            0    -9581.869    -10318.24    784.05924    9.2211048    9.2211048    9.2211048    29.557428 
Loop time of 25.7541 on 16 procs for 1000 steps with 1000 atoms

Performance: 3.355 ns/day, 7.154 hours/ns, 38.829 timesteps/s
94.3% CPU use with 16 MPI tasks x no OpenMP threads

MPI task timing breakdown:
Section |  min time  |  avg time  |  max time  |%varavg| %total
---------------------------------------------------------------
Pair    | 1.9365     | 2.077      | 2.2153     |   5.0 |  8.06
Neigh   | 0.75549    | 0.80159    | 0.85162    |   2.7 |  3.11
Comm    | 0.6677     | 0.84555    | 1.0319     |  10.2 |  3.28
Output  | 15         | 15.439     | 21.952     |  42.8 | 59.95
Modify  | 0.067668   | 6.5809     | 7.0211     |  65.6 | 25.55
Other   |            | 0.009702   |            |       |  0.04

Nlocal:    62.5 ave 69 max 56 min
Histogram: 1 0 1 4 3 2 2 1 1 1
Nghost:    1845.12 ave 1858 max 1834 min
Histogram: 3 1 2 2 2 1 1 1 0 3
Neighs:    0 ave 0 max 0 min
Histogram: 16 0 0 0 0 0 0 0 0 0
FullNghs:  18809.6 ave 20846 max 16728 min
Histogram: 1 0 1 3 3 3 1 2 1 1

Total # of neighbors = 300954
Ave neighs/atom = 300.954
Neighbor list builds = 1000
Dangerous builds not checked
Setting up Verlet run ...
  Unit style    : real
  Current step  : 24000
  Time step     : 1
Per MPI rank memory allocation (min/avg/max) = 4.578 | 4.578 | 4.579 Mbytes
Step Temp E_pair E_mol TotEng Press Volume Lx Ly Lz S/CPU 
   24000    303.42347   -10485.412            0    -9581.869    -10318.24    784.05924    9.2211048    9.2211048    9.2211048            0 
   24100    297.95629   -10472.999            0   -9585.7357   -11984.609    783.98133    9.2207994    9.2207994    9.2207994     43.49916 
   24200    292.67231   -10460.952            0   -9589.4236    6370.6894     783.5413    9.2190739    9.2190739    9.2190739     34.44052 
   24300     302.3934   -10493.461            0   -9592.9856   -7330.0021    783.01515    9.2170099    9.2170099    9.2170099    45.676036 
   24400    304.07563    -10504.74            0   -9599.2552   -11340.073    781.97292    9.2129187    9.2129187    9.2129187    37.507894 
   24500    291.31233   -10471.509            0   -9604.0302   -5712.6835     780.2841    9.2062815    9.2062815    9.2062815    43.218952 
   24600    300.17916   -10502.916            0   -9609.0336    -10173.84     778.5116    9.1993052    9.1993052    9.1993052    37.694133 
   24700    291.61024   -10482.656            0   -9614.2902     25692.16    776.51437    9.1914317    9.1914317    9.1914317    46.494617 
   24800    279.63757   -10452.627            0   -9619.9141    13438.268    775.39434    9.1870104    9.1870104    9.1870104    39.029018 
   24900    298.26594   -10515.806            0   -9627.6212    11759.611    775.09137    9.1858137    9.1858137    9.1858137     43.50657 
   25000    286.73688   -10487.413            0   -9633.5595    469.32894    775.52749    9.1875363    9.1875363    9.1875363      42.8355 
Loop time of 24.3706 on 16 procs for 1000 steps with 1000 atoms

Performance: 3.545 ns/day, 6.770 hours/ns, 41.033 timesteps/s
94.3% CPU use with 16 MPI tasks x no OpenMP threads

MPI task timing breakdown:
Section |  min time  |  avg time  |  max time  |%varavg| %total
---------------------------------------------------------------
Pair    | 1.8957     | 2.052      | 2.2067     |   6.8 |  8.42
Neigh   | 0.75776    | 0.79425    | 0.8418     |   3.5 |  3.26
Comm    | 0.69229    | 0.89132    | 1.0839     |  13.6 |  3.66
Output  | 14.29      | 14.684     | 20.52      |  39.3 | 60.25
Modify  | 0.10612    | 5.9389     | 6.3337     |  61.8 | 24.37
Other   |            | 0.009642   |            |       |  0.04

Nlocal:    62.5 ave 67 max 57 min
Histogram: 2 1 2 0 1 0 2 2 2 4
Nghost:    1869.75 ave 1889 max 1843 min
Histogram: 1 1 0 0 3 3 4 1 1 2
Neighs:    0 ave 0 max 0 min
Histogram: 16 0 0 0 0 0 0 0 0 0
FullNghs:  19016.5 ave 20544 max 17281 min
Histogram: 2 1 2 1 0 1 3 2 3 1

Total # of neighbors = 304264
Ave neighs/atom = 304.264
Neighbor list builds = 1000
Dangerous builds not checked
Setting up Verlet run ...
  Unit style    : real
  Current step  : 25000
  Time step     : 1
Per MPI rank memory allocation (min/avg/max) = 4.578 | 4.578 | 4.579 Mbytes
Step Temp E_pair E_mol TotEng Press Volume Lx Ly Lz S/CPU 
   25000    286.73688   -10487.413            0   -9633.5595    469.32894    775.52749    9.1875363    9.1875363    9.1875363            0 
   25100    282.63099   -10480.118            0   -9638.4915    8245.9267    776.40195    9.1909881    9.1909881    9.1909881    32.121981 
   25200    296.24028   -10526.233            0   -9644.0797   -13944.655     777.4748    9.1952196    9.1952196    9.1952196    35.537554 
   25300    301.72519   -10547.987            0   -9649.5011   -4529.3617    778.42874    9.1989789    9.1989789    9.1989789    31.824448 
   25400    293.78848   -10529.251            0   -9654.3986    8107.3555    779.50382    9.2032118    9.2032118    9.2032118    49.047873 
   25500    288.52926   -10518.886            0   -9659.6955    16890.774     780.6908    9.2078808    9.2078808    9.2078808     35.92071 
   25600    299.34919   -10556.897            0   -9665.4861    15531.095    782.18578    9.2137546    9.2137546    9.2137546    45.828975 
   25700    294.80662   -10546.995            0   -9669.1108    4924.9226    783.96385    9.2207309    9.2207309    9.2207309    36.007313 
   25800    282.91116   -10516.001            0   -9673.5398     7185.071    785.77233    9.2278157    9.2278157    9.2278157    43.353349 
   25900    286.65228   -10529.563            0   -9675.9613   -3622.9386    787.67802    9.2352696    9.2352696    9.2352696     30.71858 
   26000    286.96674   -10529.634            0   -9675.0962   -20440.358    789.41828    9.2420659    9.2420659    9.2420659    47.874135 
Loop time of 26.5021 on 16 procs for 1000 steps with 1000 atoms

Performance: 3.260 ns/day, 7.362 hours/ns, 37.733 timesteps/s
94.3% CPU use with 16 MPI tasks x no OpenMP threads

MPI task timing breakdown:
Section |  min time  |  avg time  |  max time  |%varavg| %total
---------------------------------------------------------------
Pair    | 1.943      | 2.0496     | 2.1619     |   4.8 |  7.73
Neigh   | 0.76757    | 0.79613    | 0.8475     |   2.5 |  3.00
Comm    | 0.70256    | 0.84069    | 0.96968    |   9.7 |  3.17
Output  | 15.422     | 15.883     | 22.712     |  44.2 | 59.93
Modify  | 0.097742   | 6.9233     | 7.3838     |  67.0 | 26.12
Other   |            | 0.009739   |            |       |  0.04

Nlocal:    62.5 ave 69 max 58 min
Histogram: 4 0 2 1 2 4 1 0 1 1
Nghost:    1864.44 ave 1882 max 1841 min
Histogram: 1 1 1 0 1 6 1 2 2 1
Neighs:    0 ave 0 max 0 min
Histogram: 16 0 0 0 0 0 0 0 0 0
FullNghs:  18676.8 ave 20489 max 17096 min
Histogram: 3 1 1 1 2 2 4 0 0 2

Total # of neighbors = 298828
Ave neighs/atom = 298.828
Neighbor list builds = 1000
Dangerous builds not checked
Setting up Verlet run ...
  Unit style    : real
  Current step  : 26000
  Time step     : 1
Per MPI rank memory allocation (min/avg/max) = 4.578 | 4.578 | 4.579 Mbytes
Step Temp E_pair E_mol TotEng Press Volume Lx Ly Lz S/CPU 
   26000    286.96674   -10529.634            0   -9675.0962   -20440.358    789.41828    9.2420659    9.2420659    9.2420659            0 
   26100    279.22744   -10501.402            0   -9669.9103   -11894.153    790.17147    9.2450043    9.2450043    9.2450043    39.044653 
   26200    300.37094   -10556.606            0   -9662.1531   -10996.226    789.62308     9.242865     9.242865     9.242865    37.070317 
   26300    291.61191   -10517.692            0    -9649.321   -17437.948    787.49657    9.2345603    9.2345603    9.2345603    39.847906 
   26400    291.79759   -10503.399            0   -9634.4761    5068.4978    784.38128    9.2223671    9.2223671    9.2223671    35.217559 
   26500    290.35293   -10483.802            0   -9619.1802    22575.083    781.25996    9.2101179    9.2101179    9.2101179    45.382119 
   26600    300.55817   -10502.783            0    -9607.772   -8776.7991    778.35322    9.1986814    9.1986814    9.1986814    44.586131 
   26700    305.19649   -10508.782            0   -9599.9586    9217.2897    775.63509    9.1879611    9.1879611    9.1879611    35.555562 
   26800    300.13492   -10487.633            0   -9593.8824     2927.932    773.60738    9.1799476    9.1799476    9.1799476     41.45637 
   26900    299.85851   -10482.044            0    -9589.117   -970.85639     772.0905    9.1739437    9.1739437    9.1739437     33.35746 
   27000    304.90095   -10494.541            0   -9586.5985    19599.573    771.29865    9.1708064    9.1708064    9.1708064    43.442327 
Loop time of 25.5786 on 16 procs for 1000 steps with 1000 atoms

Performance: 3.378 ns/day, 7.105 hours/ns, 39.095 timesteps/s
94.3% CPU use with 16 MPI tasks x no OpenMP threads

MPI task timing breakdown:
Section |  min time  |  avg time  |  max time  |%varavg| %total
---------------------------------------------------------------
Pair    | 1.9828     | 2.0416     | 2.1213     |   3.1 |  7.98
Neigh   | 0.76657    | 0.79323    | 0.82423    |   1.6 |  3.10
Comm    | 0.71098    | 0.82125    | 0.9078     |   6.1 |  3.21
Output  | 14.876     | 15.316     | 21.834     |  43.0 | 59.88
Modify  | 0.078156   | 6.5966     | 7.0365     |  65.5 | 25.79
Other   |            | 0.009631   |            |       |  0.04

Nlocal:    62.5 ave 68 max 57 min
Histogram: 2 0 1 3 1 4 2 0 2 1
Nghost:    1883.56 ave 1900 max 1869 min
Histogram: 3 1 2 0 3 1 2 0 2 2
Neighs:    0 ave 0 max 0 min
Histogram: 16 0 0 0 0 0 0 0 0 0
FullNghs:  19136.6 ave 20785 max 17470 min
Histogram: 2 0 1 3 1 4 2 0 2 1

Total # of neighbors = 306186
Ave neighs/atom = 306.186
Neighbor list builds = 1000
Dangerous builds not checked
Setting up Verlet run ...
  Unit style    : real
  Current step  : 27000
  Time step     : 1
Per MPI rank memory allocation (min/avg/max) = 4.578 | 4.578 | 4.579 Mbytes
Step Temp E_pair E_mol TotEng Press Volume Lx Ly Lz S/CPU 
   27000    304.90095   -10494.541            0   -9586.5985    19599.573    771.29865    9.1708064    9.1708064    9.1708064            0 
   27100    303.40847   -10489.127            0   -9585.6286    19814.072    771.72974    9.1725146    9.1725146    9.1725146    32.734625 
   27200    294.81872   -10462.927            0   -9585.0072    12057.855     773.3787    9.1790429    9.1790429    9.1790429    38.840252 
   27300    304.21579   -10491.981            0   -9586.0785    5719.7517     775.9239    9.1891014    9.1891014    9.1891014     41.17685 
   27400      296.957   -10470.354            0   -9586.0669   -5497.5663    779.09424    9.2015996    9.2015996    9.2015996    35.038696 
   27500     298.7677   -10476.241            0   -9586.5616   -10251.589    782.74133    9.2159354    9.2159354    9.2159354    37.593024 
   27600    309.41672   -10511.536            0   -9590.1457    -1161.047    786.12295     9.229188     9.229188     9.229188    31.398298 
   27700    298.37911   -10481.294            0   -9592.7716   -1417.6493    789.08355    9.2407594    9.2407594    9.2407594    42.847256 
   27800    294.46292    -10474.85            0   -9597.9895   -20498.808    791.29034    9.2493658    9.2493658    9.2493658    39.637109 
   27900    299.93048   -10496.468            0   -9603.3266    -10812.47    792.66829    9.2547316    9.2547316    9.2547316    37.076879 
   28000     291.1095   -10475.682            0   -9608.8072   -21259.917    792.93359     9.255764     9.255764     9.255764    39.949867 
Loop time of 26.8141 on 16 procs for 1000 steps with 1000 atoms

[...]
  742700    304.13769   -11540.546            0   -10634.876     2338.644    734.99724    9.0246126    9.0246126    9.0246126    31.159262 
  742800    298.45621   -11523.631            0   -10634.879   -11111.715    736.26128    9.0297831    9.0297831    9.0297831    44.594531 
  742900    309.85977   -11559.221            0   -10636.511   -6770.8493    737.12039    9.0332939    9.0332939    9.0332939    48.736772 
  743000     291.3582   -11502.815            0     -10635.2   -5319.5411    737.44371    9.0346145    9.0346145    9.0346145    45.249683 
  743100    282.56405   -11473.628            0     -10632.2   -2510.1163    737.29287    9.0339984    9.0339984    9.0339984    49.409744 
  743200    296.96547   -11515.855            0   -10631.542   -7264.7344    736.73108    9.0317033    9.0317033    9.0317033    40.725481 
  743300    301.84407    -11525.89            0    -10627.05    7917.9747    735.75508    9.0277133    9.0277133    9.0277133    50.545775 
  743400    307.59053   -11536.819            0   -10620.867    9198.7355     734.7615    9.0236477    9.0236477    9.0236477    43.409641 
  743500    297.39671   -11496.199            0   -10610.603    7744.3926    734.05191    9.0207419    9.0207419    9.0207419    38.010231 
  743600    309.30441   -11521.887            0   -10600.831      11739.7    733.92818    9.0202351    9.0202351    9.0202351    47.213076 
  743700    306.54449   -11501.418            0   -10588.581   -2166.7474    734.54015    9.0227414    9.0227414    9.0227414    42.941478 
  743800    300.96891    -11472.58            0   -10576.346   -3434.5974    735.71061    9.0275314    9.0275314    9.0275314    39.946233 
  743900    307.48172   -11481.475            0   -10565.847   -791.39829    736.92916    9.0325127    9.0325127    9.0325127     45.78851 
  744000    298.41268   -11445.655            0   -10557.033   -3446.0161    738.02204    9.0369756    9.0369756    9.0369756    40.815817 
  744100    299.36284    -11443.26            0   -10551.809   -11582.774    738.84184    9.0403205    9.0403205    9.0403205    54.355537 
  744200    304.32156    -11456.51            0   -10550.292   -7396.5163    738.96882    9.0408384    9.0408384    9.0408384    45.740762 
  744300     313.2922   -11481.795            0   -10548.864   -10615.056     738.4228    9.0386111    9.0386111    9.0386111    33.909709 
  744400    304.99123   -11458.767            0   -10550.555    11026.052    737.45715    9.0346694    9.0346694    9.0346694    48.517549 
  744500    297.26077   -11438.316            0   -10553.124    4384.7363    736.34501    9.0301254    9.0301254    9.0301254    35.212688 
  744600     302.3363   -11454.994            0   -10554.688    11041.314    735.46943    9.0265448    9.0265448    9.0265448    46.160839 
  744700    301.08689   -11455.006            0    -10558.42     12227.59    735.06232     9.024879     9.024879     9.024879    51.449282 
  744800    312.47018   -11493.428            0   -10562.945    11239.636    735.09065    9.0249949    9.0249949    9.0249949    33.140068 
  744900    303.00069   -11469.357            0   -10567.072    3633.4947    735.38234    9.0261885    9.0261885    9.0261885    46.099704 
  745000    301.79584   -11469.635            0   -10570.938   -5790.2576    735.82462    9.0279977    9.0279977    9.0279977    43.909842 
  745100    296.25835   -11457.323            0   -10575.116    12108.937    736.33373    9.0300793    9.0300793    9.0300793    36.402927 
  745200     307.6792   -11497.884            0   -10581.668   -5855.1178    736.87893    9.0323075    9.0323075    9.0323075      49.5412 
  745300    291.16217   -11452.261            0   -10585.229   -2236.1722    737.28658    9.0339727    9.0339727    9.0339727    41.765025 
  745400    306.42343   -11502.363            0   -10589.887   -1630.5892    737.43505    9.0345791    9.0345791    9.0345791    43.446889 
  745500    297.70278    -11479.72            0   -10593.212   -3141.0023    737.15922    9.0334525    9.0334525    9.0334525    41.013749 
  745600    299.36667   -11489.323            0    -10597.86    -2623.467    736.52722    9.0308702    9.0308702    9.0308702    37.697997 
  745700    306.12928    -11513.77            0    -10602.17    6377.4636    735.84592    9.0280848    9.0280848    9.0280848    47.034075 
  745800    313.82626   -11542.475            0   -10607.954   -6368.8775    735.21754    9.0255142    9.0255142    9.0255142    52.687645 
  745900    305.27675   -11520.418            0   -10611.356    3910.7303    734.67909    9.0233103    9.0233103    9.0233103    30.969176 
  746000    302.62758   -11517.154            0    -10615.98    7238.2212    734.57259    9.0228743    9.0228743    9.0228743    50.262179 
  746100    296.88417    -11503.68            0    -10619.61    11614.951    734.83226    9.0239374    9.0239374    9.0239374    35.734904 
  746200    300.89161   -11520.923            0   -10624.919   -2525.7727    735.50808    9.0267029    9.0267029    9.0267029    38.461655 
  746300    299.33413   -11521.134            0   -10629.768   -3161.2081    736.19396    9.0295079    9.0295079    9.0295079    33.384422 
  746400    293.14531   -11507.146            0   -10634.209   -3019.3981    736.63422    9.0313075    9.0313075    9.0313075    38.134948 
  746500    293.33174   -11512.749            0   -10639.257   -8107.3514    736.59307    9.0311393    9.0311393    9.0311393    49.905413 
  746600    297.18287   -11527.684            0   -10642.724   -8093.1165     736.1365     9.029273     9.029273     9.029273    40.987306 
  746700    290.75838   -11512.414            0   -10646.585    5478.9919    735.39963    9.0262592    9.0262592    9.0262592    49.603635 
  746800    301.68715   -11548.419            0   -10650.046    5011.8931    734.72587    9.0235018    9.0235018    9.0235018    40.730431 
  746900     296.6925   -11535.533            0   -10652.033    11056.281    734.29471    9.0217364    9.0217364    9.0217364    47.528071 
  747000    289.68255   -11518.202            0   -10655.577    10622.848    734.30513    9.0217791    9.0217791    9.0217791    49.608461 
  747100    286.28611   -11510.401            0   -10657.889   -5080.0877    734.77335    9.0236962    9.0236962    9.0236962    38.650322 
  747200    287.55939   -11515.388            0   -10659.085    6624.8412    735.44355    9.0264389    9.0264389    9.0264389    42.237529 
  747300    292.31436    -11531.05            0   -10660.587   -6375.3672    736.13895     9.029283     9.029283     9.029283    38.770581 
  747400    297.23234   -11544.328            0   -10659.221   -9529.5285    736.61746     9.031239     9.031239     9.031239    42.996827 
  747500    290.84634   -11519.511            0   -10653.421   -4613.1075    736.73707    9.0317278    9.0317278    9.0317278    44.398708 
  747600    307.56474   -11564.778            0   -10648.903   -2237.9335    736.34344     9.030119     9.030119     9.030119    42.901259 
  747700    289.94953   -11503.521            0     -10640.1   -13036.496    735.34795    9.0260478    9.0260478    9.0260478    47.676716 
  747800    292.53707   -11502.262            0   -10631.137    984.70898    734.01222    9.0205793    9.0205793    9.0205793    42.390152 
  747900     303.7187   -11527.713            0   -10623.291    13565.113    732.90158    9.0160273    9.0160273    9.0160273     36.38309 
  748000    298.17924   -11499.566            0   -10611.639    10124.925    732.61768     9.014863     9.014863     9.014863    44.042519 
  748100    300.59902   -11498.029            0   -10602.896    16728.952    733.22268    9.0173438    9.0173438    9.0173438    34.744359 
  748200    300.63506   -11490.189            0    -10594.95    8962.0419    734.75667    9.0236279    9.0236279    9.0236279    40.087188 
  748300    299.10063   -11478.497            0   -10587.827   -6944.6779    736.71466    9.0316362    9.0316362    9.0316362    41.566469 
  748400    300.74936   -11476.804            0   -10581.224   -3838.9483     738.7028    9.0397534    9.0397534    9.0397534    46.565676 
  748500    305.27377   -11484.751            0   -10575.698   -14026.536    740.29413    9.0462399    9.0462399    9.0462399    47.886601 
  748600    294.44546   -11444.583            0   -10567.775   -17889.219    741.05445    9.0493359    9.0493359    9.0493359    38.447027 
  748700    295.77092   -11443.413            0   -10562.658   -4749.3186    740.85195    9.0485115    9.0485115    9.0485115    53.847147 
  748800    303.28984   -11459.994            0   -10556.848   -8940.8843    739.68076    9.0437408    9.0437408    9.0437408    46.336214 
  748900    305.87326   -11461.933            0   -10551.094    502.70108    737.64787    9.0354481    9.0354481    9.0354481    39.786069 
  749000    295.90364   -11427.353            0   -10546.203    10601.242    735.44951    9.0264633    9.0264633    9.0264633     41.86611 
  749100    296.22074   -11425.801            0   -10543.706    9511.0692    733.85112    9.0199193    9.0199193    9.0199193    44.823092 
  749200    301.99546   -11441.419            0   -10542.128    22479.559    733.20737    9.0172811    9.0172811    9.0172811    44.260929 
  749300     314.1821   -11478.922            0   -10543.341    13212.201    733.59872    9.0188851    9.0188851    9.0188851    42.340036 
  749400    299.86185   -11437.767            0   -10544.829    14747.107    735.11321    9.0250872    9.0250872    9.0250872    35.622151 
  749500    304.97364   -11456.911            0   -10548.751    2617.8456    737.52128    9.0349312    9.0349312    9.0349312    35.727863 
  749600    313.00554   -11488.432            0   -10556.355   -16131.478    740.10546    9.0454714    9.0454714    9.0454714    44.039365 
  749700    302.49522   -11466.568            0   -10565.789   -31289.358     741.8928     9.052747     9.052747     9.052747     35.70217 
  749800    297.99887   -11467.308            0   -10579.918   -20726.974    742.21576    9.0540605    9.0540605    9.0540605    41.698916 
  749900    304.33529   -11503.565            0   -10597.306   -30188.936     740.8169    9.0483688    9.0483688    9.0483688    47.538147 
  750000    292.10371   -11481.044            0   -10611.209   -17844.539    737.89954    9.0364756    9.0364756    9.0364756    35.118818 
  750100    301.73873   -11522.777            0   -10624.251    12812.265    734.22559    9.0214533    9.0214533    9.0214533    47.350114 
  750200    308.24344   -11549.512            0   -10631.616    23081.355    730.96938    9.0080972    9.0080972    9.0080972    41.144255 
  750300    296.57488   -11517.142            0   -10633.993    30750.953    728.99067    8.9999616    8.9999616    8.9999616    44.840535 
  750400    296.08936    -11518.19            0   -10636.486    29608.253    728.82343    8.9992733    8.9992733    8.9992733    37.364037 
  750500    292.89558   -11511.512            0   -10639.319    23606.802    730.43319     9.005894     9.005894     9.005894    36.152284 
  750600    302.15958   -11540.313            0   -10640.533     5589.734    733.34133    9.0178302    9.0178302    9.0178302    50.013164 
  750700    302.11325   -11539.743            0   -10640.101   -13163.815    736.77203    9.0318707    9.0318707    9.0318707     35.32134 
  750800    298.36563   -11526.131            0   -10637.649   -27276.885    739.73817    9.0439748    9.0439748    9.0439748    38.304731 
  750900    293.83213   -11509.127            0   -10634.145   -23547.826    741.33509     9.050478     9.050478     9.050478    44.727303 
  751000    291.98218   -11498.471            0   -10628.997   -34230.861    741.35314    9.0505515    9.0505515    9.0505515    40.119544 
  751100    290.65437   -11487.501            0   -10621.982   -17495.706    739.82789    9.0443404    9.0443404    9.0443404    41.687748 
  751200    294.83629   -11491.792            0   -10613.819   -11339.998    737.15048    9.0334169    9.0334169    9.0334169    37.668146 
  751300    296.25156   -11486.998            0   -10604.811    10820.444    734.07709    9.0208451    9.0208451    9.0208451    46.628359 
  751400    303.25006   -11497.585            0   -10594.558    15757.627    731.63291     9.010822     9.010822     9.010822    48.874579 
  751500    303.36569   -11489.899            0   -10586.528    30704.154    730.49686    9.0061557    9.0061557    9.0061557    47.484584 
  751600    296.39496   -11461.049            0   -10578.435    30367.623    730.97227     9.008109     9.008109     9.008109    31.618902 
  751700    316.82045   -11521.277            0    -10577.84    12012.807    733.11945    9.0169206    9.0169206    9.0169206     46.29977 
  751800    299.87097   -11465.036            0   -10572.071    6608.7149    736.32093     9.030027     9.030027     9.030027    39.609177 
  751900    299.93007   -11462.857            0   -10569.716   -17717.472    739.83467     9.044368     9.044368     9.044368    46.017597 
  752000    317.97191   -11515.572            0   -10568.706   -34056.879    742.44103    9.0549764    9.0549764    9.0549764    35.588508 
  752100    310.96241   -11493.567            0   -10567.574    -31198.46    743.40933    9.0589112    9.0589112    9.0589112     45.99979 
  752200    299.41841   -11458.472            0   -10566.855   -29077.134    742.46744    9.0550837    9.0550837    9.0550837    48.235158 
  752300    293.49291   -11441.226            0   -10567.254   -14615.906    739.91385    9.0446907    9.0446907    9.0446907     30.97752 
  752400    303.02462   -11471.887            0   -10569.531    967.38929     736.5232    9.0308538    9.0308538    9.0308538    45.819394 
  752500    309.37325   -11492.046            0   -10570.785    18950.522    733.26398    9.0175131    9.0175131    9.0175131    38.894198 
  752600    303.46755   -11475.739            0   -10572.065    20873.546    731.16205    9.0088886    9.0088886    9.0088886    38.999108 
  752700    293.81604   -11449.396            0   -10574.462    28229.725    730.64829     9.006778     9.006778     9.006778    50.316213 
  752800    304.46153   -11486.018            0   -10579.384    19510.963    732.00043    9.0123305    9.0123305    9.0123305    38.958995 
  752900     307.1612   -11498.064            0   -10583.391    8409.9797    734.73406    9.0235354    9.0235354    9.0235354    46.508556 
  753000    307.52126   -11502.588            0   -10586.842   -9512.7038    737.98587     9.036828     9.036828     9.036828    32.056443 
  753100    298.57589   -11477.119            0   -10588.011   -19688.852    740.71702    9.0479621    9.0479621    9.0479621    42.760649 
  753200      293.474   -11465.146            0   -10591.231   -28324.185    741.95657    9.0530064    9.0530064    9.0530064    37.422863 
  753300    305.20838   -11503.041            0   -10594.183   -18630.391    741.41951    9.0508216    9.0508216    9.0508216    46.100938 
  753400    291.37935   -11463.811            0   -10596.133   -92.768681    739.47961     9.042921     9.042921     9.042921    50.854079 
  753500    301.13058   -11495.524            0   -10598.808    3064.2479    736.79599    9.0319686    9.0319686    9.0319686    36.272067 
  753600    300.05068   -11493.952            0   -10600.453     15534.32    734.07376    9.0208314    9.0208314    9.0208314    49.160819 
  753700    299.64266   -11494.177            0   -10601.893    17747.095    732.23537    9.0132946    9.0132946    9.0132946    33.978029 
  753800    290.92272   -11469.143            0   -10602.825    17966.505    731.71219    9.0111474    9.0111474    9.0111474    48.345484 
  753900    304.56247   -11514.092            0   -10607.157    10681.713    732.43126    9.0140983    9.0140983    9.0140983    48.836183 
  754000    309.27202   -11528.773            0   -10607.814    6992.2833    734.09144    9.0209038    9.0209038    9.0209038    40.654087 
  754100    302.13857   -11509.307            0    -10609.59   -8373.1912    736.09087    9.0290864    9.0290864    9.0290864    35.170507 
  754200    302.71895   -11515.505            0    -10614.06   -10116.683    737.83168    9.0361986    9.0361986    9.0361986    39.754438 
  754300    291.47497   -11487.788            0   -10619.825   -13765.192    738.84851    9.0403477    9.0403477    9.0403477    49.613028 
  754400    290.01642   -11493.473            0   -10629.854    -11522.93    738.94183    9.0407283    9.0407283    9.0407283      39.2127 
  754500    298.38308   -11529.899            0   -10641.365     -4258.02    738.28665    9.0380555    9.0380555    9.0380555    40.779724 
  754600    297.20957   -11537.706            0   -10652.667   -2898.8152    736.95954    9.0326368    9.0326368    9.0326368      46.8723 
  754700    298.11017    -11550.02            0   -10662.299   -10407.274    735.14799    9.0252296    9.0252296    9.0252296    39.234013 
  754800     280.6309   -11503.788            0   -10668.117    6118.6731    733.39965    9.0180692    9.0180692    9.0180692    44.311158 
  754900    286.10129   -11526.075            0   -10674.115    7902.7286    732.21842    9.0132251    9.0132251    9.0132251    40.866998 
  755000    285.90327   -11526.711            0    -10675.34     21528.55    731.90487    9.0119383    9.0119383    9.0119383    49.079728 
  755100    283.23457   -11519.757            0   -10676.333    16044.573    732.43975    9.0141332    9.0141332    9.0141332    38.044416 
  755200    292.50393   -11545.808            0   -10674.782   -3680.1097    733.70729      9.01933      9.01933      9.01933    37.190223 
  755300    297.08165   -11555.013            0   -10670.355   -718.70441    735.34239     9.026025     9.026025     9.026025    40.039308 
  755400    282.81426   -11503.494            0   -10661.321   -4804.2465    736.91312    9.0324472    9.0324472    9.0324472    39.969432 
  755500    285.74302   -11501.392            0   -10650.498   -11864.616    738.10106    9.0372981    9.0372981    9.0372981    43.682631 
  755600    285.04298   -11486.826            0   -10638.017   -11941.332    738.58111     9.039257     9.039257     9.039257    36.880891 
  755700    290.51273       -11490            0   -10624.903   -2044.3512    738.31205    9.0381592    9.0381592    9.0381592    47.346331 
  755800    299.04924   -11505.018            0   -10614.501   -8875.9199     737.4524      9.03465      9.03465      9.03465    39.033377 
  755900    298.29826   -11494.823            0   -10606.541   -2840.7186    736.31973    9.0300221    9.0300221    9.0300221    42.467751 
  756000    305.61911   -11511.029            0   -10600.947    10183.603    735.30037    9.0258531    9.0258531    9.0258531    47.208294 
Loop time of 2410.1 on 16 procs for 100000 steps with 1000 atoms

Performance: 3.585 ns/day, 6.695 hours/ns, 41.492 timesteps/s
94.3% CPU use with 16 MPI tasks x no OpenMP threads

MPI task timing breakdown:
Section |  min time  |  avg time  |  max time  |%varavg| %total
---------------------------------------------------------------
Pair    | 192.68     | 197.08     | 210.23     |  31.4 |  8.18
Neigh   | 77.616     | 80.653     | 85.812     |  21.9 |  3.35
Comm    | 63.324     | 81.681     | 88.935     |  69.7 |  3.39
Output  | 1386.1     | 1427.5     | 2041.4     | 419.5 | 59.23
Modify  | 8.3953     | 622.26     | 663.67     | 635.4 | 25.82
Other   |            | 0.9499     |            |       |  0.04

Nlocal:    62.5 ave 69 max 55 min
Histogram: 1 0 1 1 3 5 1 3 0 1
Nghost:    1940 ave 1967 max 1913 min
Histogram: 2 0 1 2 2 3 3 1 1 1
Neighs:    0 ave 0 max 0 min
Histogram: 16 0 0 0 0 0 0 0 0 0
FullNghs:  20016.8 ave 22101 max 17503 min
Histogram: 1 0 1 1 3 5 0 3 1 1

Total # of neighbors = 320268
Ave neighs/atom = 320.268
Neighbor list builds = 100000
Dangerous builds not checked
Total wall time: 5:33:37
