LAMMPS (16 Mar 2018)
Reading data file ...
  orthogonal box = (-4.7075 -4.7075 -4.7075) to (4.7075 4.7075 4.7075)
  2 by 2 by 4 MPI processor grid
  reading atoms ...
  1000 atoms
Reading potential file /home/fs01/ajm529/lammps-16Mar18/potentials/sw_potentials/AG/eps2.23.sw with DATE: 2008-01-29
Neighbor list info ...
  update every 1 steps, delay 0 steps, check no
  max neighbors/atom: 2000, page size: 100000
  master list distance cutoff = 3.836
  ghost atom cutoff = 3.836
  binsize = 1.918, bins = 5 5 5
  1 neighbor lists, perpetual/occasional/extra = 1 0 0
  (1) pair sw, perpetual
      attributes: full, newton on
      pair build: full/bin/atomonly
      stencil: full/bin/3d
      bin: standard
Setting up Verlet run ...
  Unit style    : real
  Current step  : 0
  Time step     : 1
Per MPI rank memory allocation (min/avg/max) = 3.518 | 3.52 | 3.522 Mbytes
Step Temp E_pair E_mol TotEng Press Volume Lx Ly Lz S/CPU 
       0          300   -10068.329            0   -9174.9806   -12236.444    834.56723    9.4150026    9.4150026    9.4150026            0 
     100    337.29656   -10184.903            0   -9180.4915   -27672.477    833.51344    9.4110382    9.4110382    9.4110382    33.162889 
     200    333.74493   -10188.687            0   -9194.8513   -22905.443    830.12381    9.3982636    9.3982636    9.3982636     35.08104 
     300    341.08836   -10233.226            0   -9217.5231   -21923.387    824.79478    9.3781096    9.3781096    9.3781096    30.863523 
     400    334.65124   -10238.113            0    -9241.579   -15373.325     818.1598    9.3528947    9.3528947    9.3528947    33.484774 
     500    331.66442   -10248.443            0   -9260.8027   -21280.031    810.81167    9.3248101    9.3248101    9.3248101    24.276228 
     600    331.19241   -10263.823            0   -9277.5889   -3282.8408    803.13586    9.2952913    9.2952913    9.2952913    35.476296 
     700    331.47647   -10283.311            0   -9296.2302    21339.566    796.49075     9.269584     9.269584     9.269584    28.057652 
     800    345.90169   -10348.209            0   -9318.1732    14520.153    791.29139    9.2493699    9.2493699    9.2493699    33.565199 
     900    332.27034   -10329.584            0   -9340.1396    6933.2946    787.53848    9.2347242    9.2347242    9.2347242    27.100971 
    1000    331.98557   -10352.391            0   -9363.7947    10806.219    785.08425    9.2251214    9.2251214    9.2251214    33.829104 
Loop time of 32.2198 on 16 procs for 1000 steps with 1000 atoms

Performance: 2.682 ns/day, 8.950 hours/ns, 31.037 timesteps/s
94.2% CPU use with 16 MPI tasks x no OpenMP threads

MPI task timing breakdown:
Section |  min time  |  avg time  |  max time  |%varavg| %total
---------------------------------------------------------------
Pair    | 2.2196     | 2.3074     | 2.4287     |   4.1 |  7.16
Neigh   | 0.76442    | 0.7997     | 0.83033    |   2.6 |  2.48
Comm    | 0.75074    | 0.9019     | 1.0234     |   8.9 |  2.80
Output  | 19.677     | 20.207     | 28.095     |  45.3 | 62.72
Modify  | 0.10652    | 7.9957     | 8.5288     |  72.0 | 24.82
Other   |            | 0.008224   |            |       |  0.03

Nlocal:    62.5 ave 69 max 57 min
Histogram: 1 2 2 3 2 1 0 3 1 1
Nghost:    1860.38 ave 1875 max 1847 min
Histogram: 1 3 2 2 1 2 0 2 1 2
Neighs:    0 ave 0 max 0 min
Histogram: 16 0 0 0 0 0 0 0 0 0
FullNghs:  18798.9 ave 20844 max 17089 min
Histogram: 1 2 2 4 1 0 1 3 1 1

Total # of neighbors = 300782
Ave neighs/atom = 300.782
Neighbor list builds = 1000
Dangerous builds not checked
Setting up Verlet run ...
  Unit style    : real
  Current step  : 1000
  Time step     : 1
Per MPI rank memory allocation (min/avg/max) = 3.768 | 4.427 | 4.581 Mbytes
Step Temp E_pair E_mol TotEng Press Volume Lx Ly Lz S/CPU 
    1000    331.98557   -10352.391            0   -9363.7947    10806.219    785.08425    9.2251214    9.2251214    9.2251214            0 
    1100    335.69772   -10387.431            0   -9387.7801    11481.942    783.84541    9.2202665    9.2202665    9.2202665    42.376003 
    1200    330.39259   -10393.178            0   -9409.3251    15379.356    783.66491    9.2195587    9.2195587    9.2195587    33.315717 
    1300    318.82671   -10380.657            0   -9431.2457    12856.622    784.04105    9.2210335    9.2210335    9.2210335    35.901924 
    1400    311.38161   -10378.741            0   -9451.4998   -12154.689    785.03838    9.2249417    9.2249417    9.2249417    33.540293 
    1500    314.07597   -10406.885            0   -9471.6208    13626.009    785.68535    9.2274752    9.2274752    9.2274752    40.830595 
    1600    307.34581   -10404.703            0   -9489.4801    12708.528    786.27305    9.2297753    9.2297753    9.2297753     33.01711 
    1700    314.32705   -10445.097            0    -9509.085    4546.4116    787.15039     9.233207     9.233207     9.233207    35.848115 
    1800    308.44578   -10444.669            0     -9526.17    5524.7442    788.03034    9.2366463    9.2366463    9.2366463    45.896978 
    1900     297.3659   -10425.997            0    -9540.492   -27103.031     788.8455    9.2398301    9.2398301    9.2398301    38.664237 
    2000    307.46862    -10472.07            0    -9556.481    -9146.933    788.49816    9.2384737    9.2384737    9.2384737     42.27728 
Loop time of 26.5262 on 16 procs for 1000 steps with 1000 atoms

Performance: 3.257 ns/day, 7.368 hours/ns, 37.699 timesteps/s
94.4% CPU use with 16 MPI tasks x no OpenMP threads

MPI task timing breakdown:
Section |  min time  |  avg time  |  max time  |%varavg| %total
---------------------------------------------------------------
Pair    | 2.315      | 2.4493     | 2.5808     |   5.4 |  9.23
Neigh   | 0.76284    | 0.81129    | 0.86581    |   3.2 |  3.06
Comm    | 0.79583    | 0.96059    | 1.1439     |  11.3 |  3.62
Output  | 15.274     | 15.719     | 22.203     |  42.2 | 59.26
Modify  | 0.094749   | 6.5781     | 7.0232     |  65.3 | 24.80
Other   |            | 0.008228   |            |       |  0.03

Nlocal:    62.5 ave 66 max 60 min
Histogram: 2 5 0 3 0 1 1 0 2 2
Nghost:    1860.75 ave 1871 max 1845 min
Histogram: 1 2 0 2 1 0 3 0 4 3
Neighs:    0 ave 0 max 0 min
Histogram: 16 0 0 0 0 0 0 0 0 0
FullNghs:  18712 ave 20148 max 17822 min
Histogram: 3 4 1 2 2 0 0 2 0 2

Total # of neighbors = 299392
Ave neighs/atom = 299.392
Neighbor list builds = 1000
Dangerous builds not checked
Setting up Verlet run ...
  Unit style    : real
  Current step  : 2000
  Time step     : 1
Per MPI rank memory allocation (min/avg/max) = 3.771 | 4.528 | 4.581 Mbytes
Step Temp E_pair E_mol TotEng Press Volume Lx Ly Lz S/CPU 
    2000    307.46862    -10472.07            0    -9556.481    -9146.933    788.49816    9.2384737    9.2384737    9.2384737            0 
    2100    301.20691   -10466.895            0   -9569.9524    12361.163    787.75666    9.2355769    9.2355769    9.2355769    33.733461 
    2200    308.67255   -10502.261            0   -9583.0871   -6928.2231    787.40993    9.2342217    9.2342217    9.2342217    38.882162 
    2300    305.03727   -10503.505            0   -9595.1564   -6774.0309    786.81545    9.2318972    9.2318972    9.2318972    39.919869 
    2400    300.72359   -10501.262            0    -9605.758    -13490.23    785.38261    9.2262898    9.2262898    9.2262898    32.819285 
    2500     289.4084   -10477.621            0   -9615.8126    15422.082    782.91279    9.2166083    9.2166083    9.2166083    43.659583 
    2600    293.19725   -10498.109            0   -9625.0178    2432.7503    780.55424    9.2073439    9.2073439    9.2073439    39.533352 
    2700    289.43157    -10495.25            0   -9633.3721    20950.957    778.42599     9.198968     9.198968     9.198968    39.151579 
    2800    295.79992   -10520.042            0   -9639.2004    7644.1135    776.90085    9.1929564    9.1929564    9.1929564    37.451737 
    2900    296.46921   -10527.285            0   -9644.4507    2435.0644    775.98207     9.189331     9.189331     9.189331    42.795434 
    3000    299.27232   -10540.238            0   -9649.0564    3408.1017    775.36218    9.1868834    9.1868834    9.1868834    36.880901 
Loop time of 26.1807 on 16 procs for 1000 steps with 1000 atoms

Performance: 3.300 ns/day, 7.272 hours/ns, 38.196 timesteps/s
94.4% CPU use with 16 MPI tasks x no OpenMP threads

MPI task timing breakdown:
Section |  min time  |  avg time  |  max time  |%varavg| %total
---------------------------------------------------------------
Pair    | 2.3709     | 2.4622     | 2.5715     |   3.7 |  9.40
Neigh   | 0.77365    | 0.81094    | 0.85449    |   2.6 |  3.10
Comm    | 0.75503    | 0.90721    | 1.0356     |   8.2 |  3.47
Output  | 15.576     | 15.974     | 21.881     |  38.2 | 61.01
Modify  | 0.11042    | 6.0184     | 6.4169     |  62.2 | 22.99
Other   |            | 0.008315   |            |       |  0.03

Nlocal:    62.5 ave 70 max 56 min
Histogram: 1 0 3 4 0 5 1 1 0 1
Nghost:    1875.69 ave 1887 max 1864 min
Histogram: 2 1 0 3 1 3 3 1 0 2
Neighs:    0 ave 0 max 0 min
Histogram: 16 0 0 0 0 0 0 0 0 0
FullNghs:  19047 ave 21186 max 16968 min
Histogram: 1 0 3 1 3 1 4 1 1 1

Total # of neighbors = 304752
Ave neighs/atom = 304.752
Neighbor list builds = 1000
Dangerous builds not checked
Setting up Verlet run ...
  Unit style    : real
  Current step  : 3000
  Time step     : 1
Per MPI rank memory allocation (min/avg/max) = 4.577 | 4.579 | 4.581 Mbytes
Step Temp E_pair E_mol TotEng Press Volume Lx Ly Lz S/CPU 
    3000    299.27232   -10540.238            0   -9649.0564    3408.1017    775.36218    9.1868834    9.1868834    9.1868834            0 
    3100    288.87334   -10511.278            0   -9651.0622    22258.703    775.18542    9.1861852    9.1861852    9.1861852    40.835848 
    3200     302.7093   -10554.612            0   -9653.1954     5768.097    776.05437    9.1896164    9.1896164    9.1896164    30.485511 
    3300    284.54174   -10500.091            0   -9652.7746   -5212.6664    777.72983    9.1962249    9.1962249    9.1962249    46.406814 
    3400    298.35428   -10541.425            0   -9652.9774   -12974.032    779.61586    9.2036527    9.2036527    9.2036527    41.844153 
    3500    287.75208   -10507.289            0   -9650.4124    8926.5758    781.12315    9.2095803    9.2095803    9.2095803    32.046055 
    3600    293.35229   -10522.217            0    -9648.664   -3034.6273    782.59364    9.2153557    9.2153557    9.2153557    36.933961 
    3700    303.36246   -10550.546            0   -9647.1846    4092.1911    784.27379    9.2219458    9.2219458    9.2219458    33.814936 
    3800    299.66162   -10535.936            0   -9643.5953   -7532.3021     786.1665    9.2293584    9.2293584    9.2293584    34.020425 
    3900    290.37971   -10503.236            0   -9638.5347   -7853.5626     787.9672    9.2363996    9.2363996    9.2363996    31.248451 
    4000    296.94753   -10515.732            0   -9631.4725   -7809.3134    789.30691    9.2416312    9.2416312    9.2416312    38.934176 
Loop time of 27.7671 on 16 procs for 1000 steps with 1000 atoms

Performance: 3.112 ns/day, 7.713 hours/ns, 36.014 timesteps/s
94.4% CPU use with 16 MPI tasks x no OpenMP threads

MPI task timing breakdown:
Section |  min time  |  avg time  |  max time  |%varavg| %total
---------------------------------------------------------------
Pair    | 2.3494     | 2.4696     | 2.61       |   4.3 |  8.89
Neigh   | 0.77873    | 0.8147     | 0.84466    |   2.3 |  2.93
Comm    | 0.7356     | 0.90117    | 1.0557     |   8.8 |  3.25
Output  | 16.121     | 16.591     | 23.422     |  43.3 | 59.75
Modify  | 0.14643    | 6.9824     | 7.4545     |  66.8 | 25.15
Other   |            | 0.008299   |            |       |  0.03

Nlocal:    62.5 ave 71 max 58 min
Histogram: 2 2 1 6 3 1 0 0 0 1
Nghost:    1845.88 ave 1855 max 1834 min
Histogram: 1 2 1 1 0 4 1 1 2 3
Neighs:    0 ave 0 max 0 min
Histogram: 16 0 0 0 0 0 0 0 0 0
FullNghs:  18691 ave 21390 max 17217 min
Histogram: 1 3 2 4 4 1 0 0 0 1

Total # of neighbors = 299056
Ave neighs/atom = 299.056
Neighbor list builds = 1000
Dangerous builds not checked
Setting up Verlet run ...
  Unit style    : real
  Current step  : 4000
  Time step     : 1
Per MPI rank memory allocation (min/avg/max) = 4.577 | 4.579 | 4.581 Mbytes
Step Temp E_pair E_mol TotEng Press Volume Lx Ly Lz S/CPU 
    4000    296.94753   -10515.732            0   -9631.4725   -7809.3134    789.30691    9.2416312    9.2416312    9.2416312            0 
    4100    292.42002   -10493.982            0   -9623.2051   -2125.4352    789.99199    9.2443042    9.2443042    9.2443042    36.040177 
    4200    299.36124   -10507.351            0   -9615.9044   -12281.553    789.89757    9.2439359    9.2439359    9.2439359    40.545484 
    4300    295.00364   -10484.723            0   -9606.2521   -9299.3145    788.70969    9.2392998    9.2392998    9.2392998    31.954524 
    4400    309.47001   -10520.271            0   -9598.7226    6016.7274    786.52965    9.2307793    9.2307793    9.2307793    33.672268 
    4500    306.97385   -10504.476            0   -9590.3599    9199.7624    784.10541    9.2212858    9.2212858    9.2212858    33.690397 
    4600    302.70738   -10483.356            0   -9581.9447    10488.351    782.38213    9.2145255    9.2145255    9.2145255    43.612326 
    4700    300.02572   -10469.678            0   -9576.2523    5466.6473    781.43295    9.2107976    9.2107976    9.2107976    39.634372 
    4800    303.74529   -10475.445            0   -9570.9431    1609.7921    780.85809    9.2085384    9.2085384    9.2085384    40.713397 
    4900    316.40911   -10513.042            0   -9570.8299    12111.585    780.53789    9.2072796    9.2072796    9.2072796    33.186886 
    5000    311.49719   -10499.254            0   -9571.6684    15096.266     780.8696    9.2085837    9.2085837    9.2085837    36.851611 
Loop time of 27.3075 on 16 procs for 1000 steps with 1000 atoms

Performance: 3.164 ns/day, 7.585 hours/ns, 36.620 timesteps/s
94.4% CPU use with 16 MPI tasks x no OpenMP threads

MPI task timing breakdown:
Section |  min time  |  avg time  |  max time  |%varavg| %total
---------------------------------------------------------------
Pair    | 2.3867     | 2.4898     | 2.6925     |   4.8 |  9.12
Neigh   | 0.78635    | 0.82252    | 0.87773    |   2.9 |  3.01
Comm    | 0.66446    | 0.92586    | 1.0653     |  10.4 |  3.39
Output  | 16.335     | 16.746     | 22.827     |  38.4 | 61.33
Modify  | 0.237      | 6.3145     | 6.7262     |  62.4 | 23.12
Other   |            | 0.008379   |            |       |  0.03

Nlocal:    62.5 ave 69 max 56 min
Histogram: 2 1 1 2 2 1 3 1 2 1
Nghost:    1864.12 ave 1880 max 1847 min
Histogram: 1 2 0 3 3 2 1 0 1 3
Neighs:    0 ave 0 max 0 min
Histogram: 16 0 0 0 0 0 0 0 0 0
FullNghs:  18937.8 ave 21082 max 16971 min
Histogram: 2 1 2 0 3 3 1 1 2 1

Total # of neighbors = 303004
Ave neighs/atom = 303.004
Neighbor list builds = 1000
Dangerous builds not checked
Setting up Verlet run ...
  Unit style    : real
  Current step  : 5000
  Time step     : 1
Per MPI rank memory allocation (min/avg/max) = 4.577 | 4.579 | 4.581 Mbytes
Step Temp E_pair E_mol TotEng Press Volume Lx Ly Lz S/CPU 
    5000    311.49719   -10499.254            0   -9571.6684    15096.266     780.8696    9.2085837    9.2085837    9.2085837            0 
    5100    307.60841   -10490.022            0   -9574.0164    14106.981    781.58986    9.2114141    9.2114141    9.2114141     34.82202 
    5200    309.77947    -10501.45            0   -9578.9798    3619.9687    782.48092    9.2149133    9.2149133    9.2149133     33.62941 
    5300     309.6296   -10509.619            0   -9587.5949    1468.3879    783.57435    9.2192036    9.2192036    9.2192036    35.809925 
    5400    300.91301   -10492.656            0   -9596.5882   -22034.748    784.62727    9.2233311    9.2233311    9.2233311    34.885014 
    5500    296.77735   -10491.135            0   -9607.3828    6740.3568    785.27152    9.2258548    9.2258548    9.2258548    41.016849 
    5600    296.46667    -10500.21            0   -9617.3828   -9920.4382    785.77503    9.2278263    9.2278263    9.2278263    35.209168 
    5700    296.06876   -10505.468            0   -9623.8255    3967.6094    786.06792    9.2289726    9.2289726    9.2289726    31.702154 
    5800     296.3703   -10512.141            0   -9629.6005    11613.656    786.12916    9.2292123    9.2292123    9.2292123    42.334528 
    5900    290.53489    -10497.02            0   -9631.8565   -6810.8631    786.24887    9.2296807    9.2296807    9.2296807    42.247756 
    6000    298.89722   -10523.556            0   -9633.4911   -14205.037    785.83517    9.2280617    9.2280617    9.2280617    35.139461 
Loop time of 27.5119 on 16 procs for 1000 steps with 1000 atoms

Performance: 3.140 ns/day, 7.642 hours/ns, 36.348 timesteps/s
94.4% CPU use with 16 MPI tasks x no OpenMP threads

MPI task timing breakdown:
Section |  min time  |  avg time  |  max time  |%varavg| %total
---------------------------------------------------------------
Pair    | 2.2414     | 2.4365     | 2.6052     |   5.5 |  8.86
Neigh   | 0.76277    | 0.80929    | 0.86554    |   3.1 |  2.94
Comm    | 0.68738    | 0.91218    | 1.1542     |  11.6 |  3.32
Output  | 16.841     | 17.246     | 23.256     |  37.4 | 62.68
Modify  | 0.089811   | 6.1001     | 6.5057     |  62.8 | 22.17
Other   |            | 0.008295   |            |       |  0.03

Nlocal:    62.5 ave 67 max 57 min
Histogram: 1 0 2 2 3 0 0 3 1 4
Nghost:    1856 ave 1869 max 1843 min
Histogram: 2 3 0 1 1 3 2 0 2 2
Neighs:    0 ave 0 max 0 min
Histogram: 16 0 0 0 0 0 0 0 0 0
FullNghs:  18773.4 ave 20091 max 16853 min
Histogram: 1 0 1 2 4 0 2 1 1 4

Total # of neighbors = 300374
Ave neighs/atom = 300.374
Neighbor list builds = 1000
Dangerous builds not checked
Setting up Verlet run ...
  Unit style    : real
  Current step  : 6000
  Time step     : 1
Per MPI rank memory allocation (min/avg/max) = 4.577 | 4.579 | 4.581 Mbytes
Step Temp E_pair E_mol TotEng Press Volume Lx Ly Lz S/CPU 
    6000    298.89722   -10523.556            0   -9633.4911   -14205.037    785.83517    9.2280617    9.2280617    9.2280617            0 
    6100    300.00427   -10528.191            0   -9634.8293   -15728.434    784.78306    9.2239415    9.2239415    9.2239415    38.724717 
    6200    295.25713   -10511.803            0   -9632.5772   -6239.3513    782.90455    9.2165759    9.2165759    9.2165759    32.671502 
    6300    290.93963    -10498.86            0   -9632.4913    31.840063    780.60074    9.2075267    9.2075267    9.2075267    39.074985 
    6400    298.65435   -10520.727            0   -9631.3848    -6305.697    778.57236    9.1995446    9.1995446    9.1995446    36.333475 
    6500    292.15013   -10497.844            0   -9627.8704    20674.363    777.07601    9.1936472    9.1936472    9.1936472     37.93187 
    6600    301.84332   -10522.276            0   -9623.4381    70.274856    776.24949    9.1903865    9.1903865    9.1903865    33.537694 
    6700    295.31282   -10492.939            0   -9613.5474   -1947.6582    776.10647     9.189822     9.189822     9.189822    37.836378 
    6800    301.22649   -10496.203            0   -9599.2022    3407.8562    776.55024    9.1915733    9.1915733    9.1915733    44.032768 
    6900    297.85933    -10467.23            0    -9580.256    8051.3489    777.56205    9.1955636    9.1955636    9.1955636    41.461279 
    7000    307.49547   -10478.543            0   -9562.8735    5991.1727    779.39951    9.2028012    9.2028012    9.2028012    38.818563 
Loop time of 26.4746 on 16 procs for 1000 steps with 1000 atoms

Performance: 3.264 ns/day, 7.354 hours/ns, 37.772 timesteps/s
94.4% CPU use with 16 MPI tasks x no OpenMP threads

MPI task timing breakdown:
Section |  min time  |  avg time  |  max time  |%varavg| %total
---------------------------------------------------------------
Pair    | 2.3707     | 2.5028     | 2.6476     |   5.3 |  9.45
Neigh   | 0.78628    | 0.81958    | 0.88249    |   2.9 |  3.10
Comm    | 0.74714    | 0.9319     | 1.0757     |  11.1 |  3.52
Output  | 15.377     | 15.801     | 22.068     |  40.7 | 59.68
Modify  | 0.14572    | 6.4107     | 6.8352     |  63.9 | 24.21
Other   |            | 0.008322   |            |       |  0.03

Nlocal:    62.5 ave 67 max 59 min
Histogram: 1 3 1 3 0 3 2 2 0 1
Nghost:    1868.44 ave 1881 max 1858 min
Histogram: 2 0 1 6 1 1 2 1 1 1
Neighs:    0 ave 0 max 0 min
Histogram: 16 0 0 0 0 0 0 0 0 0
FullNghs:  18939 ave 20328 max 17961 min
Histogram: 4 0 1 3 3 0 2 2 0 1

Total # of neighbors = 303024
Ave neighs/atom = 303.024
Neighbor list builds = 1000
Dangerous builds not checked
Setting up Verlet run ...
  Unit style    : real
  Current step  : 7000
  Time step     : 1
Per MPI rank memory allocation (min/avg/max) = 4.577 | 4.579 | 4.581 Mbytes
Step Temp E_pair E_mol TotEng Press Volume Lx Ly Lz S/CPU 
    7000    307.49547   -10478.543            0   -9562.8735    5991.1727    779.39951    9.2028012    9.2028012    9.2028012            0 
    7100    317.36519   -10496.148            0   -9551.0886   -10763.777    781.79569    9.2122226    9.2122226    9.2122226    35.983129 
    7200    313.62391   -10476.531            0   -9542.6121    2683.5562    784.15705    9.2214882    9.2214882    9.2214882    41.379788 
    7300    306.07701   -10451.373            0   -9539.9281   -15541.621    786.54235     9.230829     9.230829     9.230829      34.9734 
    7400    307.20849   -10453.421            0   -9538.6066   -27830.568    788.47293    9.2383752    9.2383752    9.2383752    37.286981 
    7500    303.07314   -10440.685            0   -9538.1854   -12328.204    789.46529    9.2422493    9.2422493    9.2422493    37.095615 
    7600     309.7181   -10462.253            0   -9539.9656    225.36964    790.39076    9.2458594    9.2458594    9.2458594    36.628561 
    7700    313.74648   -10477.904            0   -9543.6203   -11883.657    791.24093    9.2491733    9.2491733    9.2491733    36.881609 
    7800    300.86357   -10440.133            0   -9544.2128   -6330.1069    791.72107    9.2510437    9.2510437    9.2510437    39.923975 
    7900    305.38086   -10458.819            0   -9549.4473   -14844.686    791.59816     9.250565     9.250565     9.250565     38.04203 
    8000    313.76625   -10491.471            0   -9557.1291   -2172.9976    790.88062    9.2477691    9.2477691    9.2477691    36.955754 
Loop time of 26.7136 on 16 procs for 1000 steps with 1000 atoms

Performance: 3.234 ns/day, 7.420 hours/ns, 37.434 timesteps/s
94.4% CPU use with 16 MPI tasks x no OpenMP threads

MPI task timing breakdown:
Section |  min time  |  avg time  |  max time  |%varavg| %total
---------------------------------------------------------------
Pair    | 2.2308     | 2.4586     | 2.7074     |   6.4 |  9.20
Neigh   | 0.76547    | 0.81598    | 0.86371    |   3.1 |  3.05
Comm    | 0.60929    | 0.90036    | 1.1785     |  13.0 |  3.37
Output  | 15.473     | 15.91      | 22.412     |  42.1 | 59.56
Modify  | 0.11401    | 6.6199     | 7.0584     |  65.3 | 24.78
Other   |            | 0.008355   |            |       |  0.03

Nlocal:    62.5 ave 68 max 58 min
Histogram: 2 0 1 3 3 1 3 1 0 2
Nghost:    1846.62 ave 1862 max 1822 min
Histogram: 1 1 0 1 1 0 5 4 1 2
Neighs:    0 ave 0 max 0 min
Histogram: 16 0 0 0 0 0 0 0 0 0
FullNghs:  18633.8 ave 20281 max 17264 min
Histogram: 2 0 2 2 3 2 3 0 0 2

Total # of neighbors = 298140
Ave neighs/atom = 298.14
Neighbor list builds = 1000
Dangerous builds not checked
Setting up Verlet run ...
  Unit style    : real
  Current step  : 8000
  Time step     : 1
Per MPI rank memory allocation (min/avg/max) = 4.577 | 4.579 | 4.581 Mbytes
Step Temp E_pair E_mol TotEng Press Volume Lx Ly Lz S/CPU 
    8000    313.76625   -10491.471            0   -9557.1291   -2172.9976    790.88062    9.2477691    9.2477691    9.2477691            0 
    8100    309.91993   -10488.593            0   -9565.7043    5329.8536    790.19634    9.2451013    9.2451013    9.2451013    42.081348 
    8200    287.35146   -10431.345            0   -9575.6612    1352.6481    789.44135    9.2421559    9.2421559    9.2421559    37.143087 
    8300    306.91484   -10500.617            0   -9586.6771   -9494.9204    788.65237    9.2390759    9.2390759    9.2390759    44.488506 
    8400    295.09374   -10473.319            0   -9594.5804   -8386.2383    787.54818    9.2347621    9.2347621    9.2347621    37.631938 
    8500    296.29744   -10484.128            0   -9601.8051   -14033.612    786.02086    9.2287884    9.2287884    9.2287884    35.619984 
    8600    303.43502   -10510.951            0   -9607.3737    179.27549    783.91423    9.2205363    9.2205363    9.2205363     36.57164 
    8700    306.48207   -10522.206            0   -9609.5547   -2209.4356    782.26891    9.2140809    9.2140809    9.2140809    24.809213 
    8800    298.74533    -10500.45            0   -9610.8372    8108.2067    781.18639    9.2098288    9.2098288    9.2098288    42.092851 
    8900    301.37919   -10509.212            0   -9611.7567    18189.467     780.7637    9.2081673    9.2081673    9.2081673    34.637344 
    9000    293.69685   -10486.703            0    -9612.124    12014.703    781.43095    9.2107897    9.2107897    9.2107897    35.714967 
Loop time of 27.609 on 16 procs for 1000 steps with 1000 atoms

Performance: 3.129 ns/day, 7.669 hours/ns, 36.220 timesteps/s
94.4% CPU use with 16 MPI tasks x no OpenMP threads

MPI task timing breakdown:
Section |  min time  |  avg time  |  max time  |%varavg| %total
---------------------------------------------------------------
Pair    | 2.3783     | 2.4739     | 2.5786     |   3.8 |  8.96
Neigh   | 0.78631    | 0.82248    | 0.86875    |   2.9 |  2.98
Comm    | 0.79655    | 0.93091    | 1.0536     |   8.4 |  3.37
Output  | 16.483     | 16.917     | 23.258     |  39.8 | 61.27
Modify  | 0.10618    | 6.4559     | 6.8923     |  64.5 | 23.38
Other   |            | 0.008779   |            |       |  0.03

Nlocal:    62.5 ave 66 max 56 min
Histogram: 1 1 0 0 3 1 1 1 1 7
Nghost:    1867.94 ave 1878 max 1861 min
Histogram: 2 3 2 1 4 1 0 0 2 1
Neighs:    0 ave 0 max 0 min
Histogram: 16 0 0 0 0 0 0 0 0 0
FullNghs:  18903.2 ave 20151 max 16999 min
Histogram: 2 0 0 2 2 1 1 3 3 2

Total # of neighbors = 302452
Ave neighs/atom = 302.452
Neighbor list builds = 1000
Dangerous builds not checked
Setting up Verlet run ...
  Unit style    : real
  Current step  : 9000
  Time step     : 1
Per MPI rank memory allocation (min/avg/max) = 4.577 | 4.579 | 4.581 Mbytes
Step Temp E_pair E_mol TotEng Press Volume Lx Ly Lz S/CPU 
    9000    293.69685   -10486.703            0    -9612.124    12014.703    781.43095    9.2107897    9.2107897    9.2107897            0 
    9100    303.58184   -10515.474            0   -9611.4586   -7165.1891    782.81887    9.2162397    9.2162397    9.2162397    42.481527 
    9200     298.0011   -10497.048            0   -9609.6513    523.15966    784.38438    9.2223793    9.2223793    9.2223793    30.853274 
    9300    299.08778   -10498.244            0    -9607.612    3402.7787    786.18645    9.2294365    9.2294365    9.2294365    48.308136 
    9400    298.71594   -10495.082            0   -9605.5565   -10279.006    787.79644    9.2357323    9.2357323    9.2357323    44.116948 
    9500     294.5377   -10479.521            0   -9602.4382   -3489.0578    788.79748    9.2396426    9.2396426    9.2396426    38.537662 
    9600    299.22649   -10491.357            0   -9600.3119   -2547.1276    789.09535    9.2408055    9.2408055    9.2408055    40.958901 
    9700    306.06868   -10509.469            0   -9598.0491   -10353.996    788.98946    9.2403921    9.2403921    9.2403921    31.022863 
    9800    300.62598   -10489.902            0   -9594.6894    6174.4075    788.61547    9.2389318    9.2389318    9.2389318    42.865835 
    9900    304.89523   -10498.966            0   -9591.0402   -1838.9932    787.97016    9.2364111    9.2364111    9.2364111    38.629239 
   10000    299.43434   -10478.223            0   -9586.5587    6472.1991    786.90451    9.2322455    9.2322455    9.2322455    43.008437 
Loop time of 25.4383 on 16 procs for 1000 steps with 1000 atoms

Performance: 3.396 ns/day, 7.066 hours/ns, 39.311 timesteps/s
94.4% CPU use with 16 MPI tasks x no OpenMP threads

MPI task timing breakdown:
Section |  min time  |  avg time  |  max time  |%varavg| %total
---------------------------------------------------------------
Pair    | 2.2847     | 2.4214     | 2.5818     |   5.6 |  9.52
Neigh   | 0.76832    | 0.80658    | 0.86085    |   3.1 |  3.17
Comm    | 0.72681    | 0.94064    | 1.1158     |  11.6 |  3.70
Output  | 14.498     | 14.921     | 21.157     |  41.7 | 58.66
Modify  | 0.10341    | 6.3401     | 6.7642     |  64.0 | 24.92
Other   |            | 0.008255   |            |       |  0.03

Nlocal:    62.5 ave 66 max 58 min
Histogram: 1 1 1 1 0 2 4 5 0 1
Nghost:    1844.25 ave 1860 max 1831 min
Histogram: 3 2 2 1 2 0 2 0 0 4
Neighs:    0 ave 0 max 0 min
Histogram: 16 0 0 0 0 0 0 0 0 0
FullNghs:  18769.9 ave 19836 max 17299 min
Histogram: 2 0 1 0 1 2 4 4 1 1

Total # of neighbors = 300318
Ave neighs/atom = 300.318
Neighbor list builds = 1000
Dangerous builds not checked
Setting up Verlet run ...
  Unit style    : real
  Current step  : 10000
  Time step     : 1
Per MPI rank memory allocation (min/avg/max) = 4.577 | 4.579 | 4.581 Mbytes
Step Temp E_pair E_mol TotEng Press Volume Lx Ly Lz S/CPU 
   10000    299.43434   -10478.223            0   -9586.5587    6472.1991    786.90451    9.2322455    9.2322455    9.2322455            0 
   10100    309.31909   -10503.191            0   -9582.0912   -5411.8448    785.57062     9.227026     9.227026     9.227026    31.228424 
   10200    297.37859    -10462.54            0   -9576.9974    -9612.011    784.05006    9.2210689    9.2210689    9.2210689    42.743658 
   10300    313.97928   -10510.035            0   -9575.0579    199.61277    782.14486    9.2135939    9.2135939    9.2135939    46.792453 
   10400     310.9823   -10498.893            0   -9572.8406    15384.104    780.22309    9.2060416    9.2060416    9.2060416    34.148653 
   10500     306.4228   -10484.254            0   -9571.7794    6818.7141    778.87338      9.20073      9.20073      9.20073    37.298983 
   10600    311.85987   -10501.964            0   -9573.2989    13070.613    778.30904    9.1985073    9.1985073    9.1985073    37.079726 
   10700    305.47094    -10485.49            0   -9575.8497    5977.8309    778.46732    9.1991308    9.1991308    9.1991308    44.549806 
   10800    306.97666   -10492.419            0   -9578.2953    3613.6227    779.10669    9.2016486    9.2016486    9.2016486    35.729394 
   10900    298.87444   -10470.194            0   -9580.1965   -6089.4577    780.31411    9.2063996    9.2063996    9.2063996     44.09519 
   11000    295.55085   -10461.507            0   -9581.4066   -1740.6216    781.87821    9.2125467    9.2125467    9.2125467    33.151581 
Loop time of 26.3129 on 16 procs for 1000 steps with 1000 atoms

Performance: 3.284 ns/day, 7.309 hours/ns, 38.004 timesteps/s
94.4% CPU use with 16 MPI tasks x no OpenMP threads

MPI task timing breakdown:
Section |  min time  |  avg time  |  max time  |%varavg| %total
---------------------------------------------------------------
Pair    | 2.4055     | 2.4928     | 2.622      |   3.4 |  9.47
Neigh   | 0.79783    | 0.81952    | 0.83835    |   1.1 |  3.11
Comm    | 0.78016    | 0.92062    | 1.0258     |   6.3 |  3.50
Output  | 15.028     | 15.462     | 21.918     |  42.4 | 58.76
Modify  | 0.15382    | 6.6091     | 7.0456     |  64.8 | 25.12
Other   |            | 0.008761   |            |       |  0.03

Nlocal:    62.5 ave 68 max 57 min
Histogram: 2 1 0 4 3 1 1 0 1 3
Nghost:    1867 ave 1882 max 1851 min
Histogram: 1 2 0 4 1 0 5 1 0 2
Neighs:    0 ave 0 max 0 min
Histogram: 16 0 0 0 0 0 0 0 0 0
FullNghs:  18887.1 ave 20782 max 16981 min
Histogram: 1 2 0 3 4 1 1 0 1 3

Total # of neighbors = 302194
Ave neighs/atom = 302.194
Neighbor list builds = 1000
Dangerous builds not checked
Setting up Verlet run ...
  Unit style    : real
  Current step  : 11000
  Time step     : 1
Per MPI rank memory allocation (min/avg/max) = 4.577 | 4.579 | 4.581 Mbytes
Step Temp E_pair E_mol TotEng Press Volume Lx Ly Lz S/CPU 
   11000    295.55085   -10461.507            0   -9581.4066   -1740.6216    781.87821    9.2125467    9.2125467    9.2125467            0 
   11100    309.10711   -10503.989            0    -9583.521    212.70214    783.65371    9.2195148    9.2195148    9.2195148     43.36007 
   11200    298.23833   -10471.822            0   -9583.7196   -227.87162    785.34791    9.2261539    9.2261539    9.2261539    38.428573 
   11300     298.3242   -10471.955            0   -9583.5964    -6801.168     786.8417    9.2319999    9.2319999    9.2319999     36.75127 
   11400    289.63966   -10445.105            0   -9582.6076   -296.76748    788.18111    9.2372353    9.2372353    9.2372353    35.480908 
   11500    310.94218   -10508.106            0   -9582.1736    18484.033    789.26557    9.2414699    9.2414699    9.2414699    38.390157 
   11600    293.65731    -10454.02            0    -9579.559   -12693.486    790.28838    9.2454602    9.2454602    9.2454602    34.002761 
   11700    297.84556   -10465.972            0   -9579.0392   -7924.7704    791.08847    9.2485792    9.2485792    9.2485792    42.939719 
   11800    299.67198   -10468.774            0   -9576.4021   -9082.3475     791.8467     9.251533     9.251533     9.251533    32.090738 
   11900    298.96597   -10465.292            0   -9575.0219   -10118.685     792.2746    9.2531992    9.2531992    9.2531992    39.551371 
   12000      309.027    -10495.24            0   -9575.0106   -457.42785    792.13013    9.2526367    9.2526367    9.2526367    41.806865 
Loop time of 26.359 on 16 procs for 1000 steps with 1000 atoms

Performance: 3.278 ns/day, 7.322 hours/ns, 37.938 timesteps/s
94.3% CPU use with 16 MPI tasks x no OpenMP threads

MPI task timing breakdown:
Section |  min time  |  avg time  |  max time  |%varavg| %total
---------------------------------------------------------------
Pair    | 2.2461     | 2.3924     | 2.6293     |   6.4 |  9.08
Neigh   | 0.75845    | 0.79936    | 0.8467     |   3.0 |  3.03
Comm    | 0.66137    | 0.94652    | 1.127      |  12.6 |  3.59
Output  | 15.577     | 15.99      | 22.105     |  39.5 | 60.66
Modify  | 0.10064    | 6.2221     | 6.6383     |  63.4 | 23.61
Other   |            | 0.008181   |            |       |  0.03

Nlocal:    62.5 ave 66 max 58 min
Histogram: 1 2 1 1 0 1 3 4 2 1
Nghost:    1833.25 ave 1851 max 1815 min
Histogram: 2 3 1 2 0 0 1 1 3 3
Neighs:    0 ave 0 max 0 min
Histogram: 16 0 0 0 0 0 0 0 0 0
FullNghs:  18641.9 ave 19701 max 17283 min
Histogram: 2 2 1 0 1 1 3 0 3 3

Total # of neighbors = 298270
Ave neighs/atom = 298.27
Neighbor list builds = 1000
Dangerous builds not checked
Setting up Verlet run ...
  Unit style    : real
  Current step  : 12000
  Time step     : 1
Per MPI rank memory allocation (min/avg/max) = 4.577 | 4.579 | 4.581 Mbytes
Step Temp E_pair E_mol TotEng Press Volume Lx Ly Lz S/CPU 
   12000      309.027    -10495.24            0   -9575.0106   -457.42785    792.13013    9.2526367    9.2526367    9.2526367            0 
   12100    307.60097   -10489.437            0   -9573.4535    2860.3155    791.45845    9.2500207    9.2500207    9.2500207    35.357214 
   12200    301.27591   -10470.189            0   -9573.0404    9322.7098    790.41036    9.2459358    9.2459358    9.2459358    39.200436 
   12300    296.67928   -10457.046            0   -9573.5856   -2642.5023    789.66979    9.2430473    9.2430473    9.2430473    30.902489 
   12400    306.99887   -10489.576            0   -9575.3859   -19441.493    788.85516    9.2398678    9.2398678    9.2398678    37.267476 
   12500    299.37205   -10467.528            0   -9576.0493   -1784.9613    787.43307    9.2343121    9.2343121    9.2343121    34.608775 
   12600    309.34991   -10501.684            0   -9580.4931   -16307.457    785.69942    9.2275303    9.2275303    9.2275303    36.182076 
   12700    303.89618   -10489.909            0   -9584.9583    5216.4727    783.64963    9.2194988    9.2194988    9.2194988    27.301327 
   12800    295.48298   -10471.808            0   -9591.9104   -443.10106    781.68091    9.2117717    9.2117717    9.2117717    35.489658 
   12900    293.57558   -10474.681            0   -9600.4632    18844.481    779.85701    9.2046015    9.2046015    9.2046015     34.57336 
   13000    298.19333   -10500.194            0   -9612.2249    26349.219    778.86525     9.200698     9.200698     9.200698    39.852365 
Loop time of 28.834 on 16 procs for 1000 steps with 1000 atoms

Performance: 2.996 ns/day, 8.009 hours/ns, 34.681 timesteps/s
94.3% CPU use with 16 MPI tasks x no OpenMP threads

MPI task timing breakdown:
Section |  min time  |  avg time  |  max time  |%varavg| %total
---------------------------------------------------------------
Pair    | 2.3453     | 2.4494     | 2.5974     |   5.5 |  8.49
Neigh   | 0.77849    | 0.81284    | 0.86387    |   3.0 |  2.82
Comm    | 0.77016    | 0.95628    | 1.0968     |  11.4 |  3.32
Output  | 17.266     | 17.716     | 24.417     |  41.1 | 61.44
Modify  | 0.20822    | 6.8909     | 7.3399     |  65.7 | 23.90
Other   |            | 0.008272   |            |       |  0.03

Nlocal:    62.5 ave 69 max 56 min
Histogram: 1 1 1 1 6 1 2 1 1 1
Nghost:    1873.25 ave 1888 max 1857 min
Histogram: 2 3 0 1 0 2 2 1 2 3
Neighs:    0 ave 0 max 0 min
Histogram: 16 0 0 0 0 0 0 0 0 0
FullNghs:  18945 ave 21002 max 16937 min
Histogram: 1 1 1 1 6 1 2 1 1 1

Total # of neighbors = 303120
Ave neighs/atom = 303.12
Neighbor list builds = 1000
Dangerous builds not checked
Setting up Verlet run ...
  Unit style    : real
  Current step  : 13000
  Time step     : 1
Per MPI rank memory allocation (min/avg/max) = 4.577 | 4.579 | 4.581 Mbytes
Step Temp E_pair E_mol TotEng Press Volume Lx Ly Lz S/CPU 
   13000    298.19333   -10500.194            0   -9612.2249    26349.219    778.86525     9.200698     9.200698     9.200698            0 
   13100    291.45691   -10492.556            0   -9624.6468    7353.0574    779.02996    9.2013465    9.2013465    9.2013465    32.854745 
   13200    288.84696   -10496.021            0   -9635.8841    -725.6635    779.61747     9.203659     9.203659     9.203659    43.598933 
   13300    304.08506    -10552.21            0   -9646.6967    1063.4171    780.01785    9.2052343    9.2052343    9.2052343    34.267514 
   13400    296.16256   -10536.048            0    -9654.126    11940.769    780.56771    9.2073968    9.2073968    9.2073968    43.001263 
   13500    306.09814   -10571.734            0   -9660.2255    3235.0067    781.59823     9.211447     9.211447     9.211447    34.844097 
   13600    290.79582   -10529.722            0   -9663.7821   -10882.635    782.82144    9.2162498    9.2162498    9.2162498    35.882744 
   13700    286.11801   -10516.967            0   -9664.9565   -9536.6656    783.72333    9.2197878    9.2197878    9.2197878    36.629159 
   13800    304.87907   -10573.897            0   -9666.0195   -4732.1106    784.14151    9.2214273    9.2214273    9.2214273    38.493991 
   13900    287.75616   -10522.351            0   -9665.4625   -19749.064    784.49826    9.2228256    9.2228256    9.2228256    31.530109 
   14000    297.99594   -10551.627            0   -9664.2458   -9937.9595    784.38491    9.2223814    9.2223814    9.2223814    27.980558 
Loop time of 28.3112 on 16 procs for 1000 steps with 1000 atoms

Performance: 3.052 ns/day, 7.864 hours/ns, 35.322 timesteps/s
94.4% CPU use with 16 MPI tasks x no OpenMP threads

MPI task timing breakdown:
Section |  min time  |  avg time  |  max time  |%varavg| %total
---------------------------------------------------------------
Pair    | 2.2939     | 2.4408     | 2.5811     |   5.8 |  8.62
Neigh   | 0.7582     | 0.80746    | 0.86013    |   3.2 |  2.85
Comm    | 0.75095    | 0.94289    | 1.1386     |  11.9 |  3.33
Output  | 16.265     | 16.755     | 24.01      |  45.8 | 59.18
Modify  | 0.09911    | 7.3563     | 7.848      |  69.1 | 25.98
Other   |            | 0.008296   |            |       |  0.03

Nlocal:    62.5 ave 68 max 57 min
Histogram: 1 0 3 3 3 1 1 0 2 2
Nghost:    1846.94 ave 1862 max 1830 min
Histogram: 1 0 0 1 4 7 1 1 0 1
Neighs:    0 ave 0 max 0 min
Histogram: 16 0 0 0 0 0 0 0 0 0
FullNghs:  18802.9 ave 20524 max 17061 min
Histogram: 1 0 1 5 3 2 0 0 3 1

Total # of neighbors = 300846
Ave neighs/atom = 300.846
Neighbor list builds = 1000
Dangerous builds not checked
Setting up Verlet run ...
  Unit style    : real
  Current step  : 14000
  Time step     : 1
Per MPI rank memory allocation (min/avg/max) = 4.577 | 4.579 | 4.581 Mbytes
Step Temp E_pair E_mol TotEng Press Volume Lx Ly Lz S/CPU 
   14000    297.99594   -10551.627            0   -9664.2458   -9937.9595    784.38491    9.2223814    9.2223814    9.2223814            0 
   14100    289.98075   -10523.994            0   -9660.4811    17309.938    783.74938    9.2198899    9.2198899    9.2198899    39.365742 
   14200    299.18051   -10548.077            0    -9657.169   -2355.6257    782.97812    9.2168646    9.2168646    9.2168646    45.641657 
   14300    289.20616   -10512.592            0   -9651.3853    9009.1087    781.98278    9.2129574    9.2129574    9.2129574    31.159762 
   14400    290.32668    -10507.41            0   -9642.8671    4321.6546     781.0579    9.2093238    9.2093238    9.2093238    44.522953 
   14500    295.92528   -10514.687            0    -9633.472   -736.43519    780.59295    9.2074961    9.2074961    9.2074961    36.678426 
   14600     304.9216    -10529.42            0   -9621.4158    8475.7722    780.40356    9.2067513    9.2067513    9.2067513    35.801614 
   14700    285.51166   -10457.148            0   -9606.9432    13364.421    780.92523    9.2088023    9.2088023    9.2088023    33.061876 
   14800     289.5289   -10457.401            0   -9595.2333    2007.7539    782.49461     9.214967     9.214967     9.214967    39.751547 
   14900    294.17866   -10461.825            0    -9585.811     7074.997    784.95159    9.2246017    9.2246017    9.2246017    47.223626 
   15000    290.26215   -10445.044            0   -9580.6926    3795.8537    788.29439    9.2376778    9.2376778    9.2376778    40.828259 
Loop time of 25.8133 on 16 procs for 1000 steps with 1000 atoms

Performance: 3.347 ns/day, 7.170 hours/ns, 38.740 timesteps/s
94.4% CPU use with 16 MPI tasks x no OpenMP threads

MPI task timing breakdown:
Section |  min time  |  avg time  |  max time  |%varavg| %total
---------------------------------------------------------------
Pair    | 2.2773     | 2.446      | 2.5583     |   5.4 |  9.48
Neigh   | 0.76704    | 0.8078     | 0.85078    |   2.8 |  3.13
Comm    | 0.78417    | 0.92871    | 1.1366     |  11.1 |  3.60
Output  | 15.11      | 15.522     | 21.524     |  39.3 | 60.13
Modify  | 0.088679   | 6.1009     | 6.5143     |  62.8 | 23.63
Other   |            | 0.008318   |            |       |  0.03

Nlocal:    62.5 ave 70 max 57 min
Histogram: 1 3 1 2 5 0 2 1 0 1
Nghost:    1859 ave 1881 max 1840 min
Histogram: 2 2 1 1 3 3 1 0 1 2
Neighs:    0 ave 0 max 0 min
Histogram: 16 0 0 0 0 0 0 0 0 0
FullNghs:  18715.2 ave 21061 max 16989 min
Histogram: 1 3 2 1 4 2 1 1 0 1

Total # of neighbors = 299444
Ave neighs/atom = 299.444
Neighbor list builds = 1000
Dangerous builds not checked
Setting up Verlet run ...
  Unit style    : real
  Current step  : 15000
  Time step     : 1
Per MPI rank memory allocation (min/avg/max) = 4.577 | 4.579 | 4.581 Mbytes
Step Temp E_pair E_mol TotEng Press Volume Lx Ly Lz S/CPU 
   15000    290.26215   -10445.044            0   -9580.6926    3795.8537    788.29439    9.2376778    9.2376778    9.2376778            0 
   15100     292.4767   -10445.549            0   -9574.6035   -7785.4777    792.03053    9.2522489    9.2522489    9.2522489    42.811407 
   15200    281.33008   -10407.573            0   -9569.8204   -7714.6166    795.24615    9.2647533    9.2647533    9.2647533    30.754114 
   15300    298.51488   -10456.242            0   -9567.3154   -3692.8253    797.90375    9.2750623    9.2750623    9.2750623    42.543453 
   15400    303.16648   -10467.031            0   -9564.2527   -16397.235    800.33941    9.2844903    9.2844903    9.2844903    40.368228 
   15500    295.49544   -10441.244            0   -9561.3086   -6726.1012    801.81018    9.2901742    9.2901742    9.2901742    33.638603 
   15600    299.36864   -10450.321            0   -9558.8523   -11829.794    802.42177    9.2925356    9.2925356    9.2925356    39.967387 
   15700    310.86152   -10483.503            0   -9557.8104   -17754.249     802.3292    9.2921783    9.2921783    9.2921783    30.950227 
   15800    300.65747   -10450.597            0   -9555.2902   -13262.967    801.08816    9.2873847    9.2873847    9.2873847    46.728449 
   15900      292.805   -10426.843            0   -9554.9194   -6017.8376     798.8178    9.2786027    9.2786027    9.2786027    41.981973 
   16000    295.56563   -10433.943            0   -9553.7993    12213.397    796.35747     9.269067     9.269067     9.269067    35.285717 
Loop time of 26.477 on 16 procs for 1000 steps with 1000 atoms

Performance: 3.263 ns/day, 7.355 hours/ns, 37.769 timesteps/s
94.4% CPU use with 16 MPI tasks x no OpenMP threads

MPI task timing breakdown:
Section |  min time  |  avg time  |  max time  |%varavg| %total
---------------------------------------------------------------
Pair    | 2.2481     | 2.3637     | 2.4955     |   4.2 |  8.93
Neigh   | 0.774      | 0.80547    | 0.8522     |   2.6 |  3.04
Comm    | 0.7523     | 0.92778    | 1.0714     |   8.8 |  3.50
Output  | 15.232     | 15.673     | 22.242     |  42.8 | 59.20
Modify  | 0.12675    | 6.6985     | 7.1411     |  65.6 | 25.30
Other   |            | 0.008197   |            |       |  0.03

Nlocal:    62.5 ave 68 max 57 min
Histogram: 2 1 1 3 1 1 2 1 3 1
Nghost:    1839.75 ave 1854 max 1825 min
Histogram: 3 2 1 0 1 1 2 2 2 2
Neighs:    0 ave 0 max 0 min
Histogram: 16 0 0 0 0 0 0 0 0 0
FullNghs:  18542.2 ave 20244 max 16772 min
Histogram: 2 0 1 3 2 2 2 1 2 1

Total # of neighbors = 296676
Ave neighs/atom = 296.676
Neighbor list builds = 1000
Dangerous builds not checked
Setting up Verlet run ...
  Unit style    : real
  Current step  : 16000
  Time step     : 1
Per MPI rank memory allocation (min/avg/max) = 4.577 | 4.579 | 4.581 Mbytes
Step Temp E_pair E_mol TotEng Press Volume Lx Ly Lz S/CPU 
   16000    295.56563   -10433.943            0   -9553.7993    12213.397    796.35747     9.269067     9.269067     9.269067            0 
   16100    303.89031   -10460.652            0   -9555.7186   -5221.1044    793.89197    9.2594915    9.2594915    9.2594915     40.81811 
   16200    301.29305   -10452.947            0   -9555.7482    3686.0193    790.86654    9.2477142    9.2477142    9.2477142    38.544377 
   16300    311.34107   -10487.152            0   -9560.0318   -3740.4186    788.16228    9.2371618    9.2371618    9.2371618    40.518235 
   16400    298.39613   -10450.723            0   -9562.1502    3754.8538     785.8811    9.2282414    9.2282414    9.2282414    34.911114 
   16500    299.03965   -10458.303            0    -9567.814    2380.4445    783.70817    9.2197283    9.2197283    9.2197283    35.574509 
   16600    288.59047   -10433.808            0   -9574.4354     326.2047    781.61885     9.211528     9.211528     9.211528    36.927579 
   16700    300.05838   -10477.222            0    -9583.699    10373.425     779.9741    9.2050622    9.2050622    9.2050622    33.805243 
   16800    292.16612   -10464.169            0   -9594.1479    11439.182    779.06123    9.2014696    9.2014696    9.2014696    47.373238 
   16900    297.63863   -10491.797            0   -9605.4795    23130.769     779.1232    9.2017136    9.2017136    9.2017136    38.982066 
   17000    297.26506   -10502.193            0   -9616.9885   -4308.5282    780.01094    9.2052071    9.2052071    9.2052071     35.60362 
Loop time of 26.3388 on 16 procs for 1000 steps with 1000 atoms

Performance: 3.280 ns/day, 7.316 hours/ns, 37.967 timesteps/s
94.4% CPU use with 16 MPI tasks x no OpenMP threads

MPI task timing breakdown:
Section |  min time  |  avg time  |  max time  |%varavg| %total
---------------------------------------------------------------
Pair    | 2.3541     | 2.4715     | 2.6458     |   5.1 |  9.38
Neigh   | 0.78616    | 0.81544    | 0.85852    |   2.2 |  3.10
Comm    | 0.6656     | 0.88332    | 1.018      |  10.3 |  3.35
Output  | 15.635     | 16.043     | 22.056     |  38.8 | 60.91
Modify  | 0.10279    | 6.1169     | 6.5256     |  62.8 | 23.22
Other   |            | 0.008849   |            |       |  0.03

Nlocal:    62.5 ave 69 max 58 min
Histogram: 3 2 2 3 0 2 1 0 1 2
Nghost:    1851.88 ave 1879 max 1833 min
Histogram: 4 2 2 0 0 2 3 1 1 1
Neighs:    0 ave 0 max 0 min
Histogram: 16 0 0 0 0 0 0 0 0 0
FullNghs:  18924.6 ave 20897 max 17466 min
Histogram: 3 0 3 3 1 2 1 0 1 2

Total # of neighbors = 302794
Ave neighs/atom = 302.794
Neighbor list builds = 1000
Dangerous builds not checked
Setting up Verlet run ...
  Unit style    : real
  Current step  : 17000
  Time step     : 1
Per MPI rank memory allocation (min/avg/max) = 4.577 | 4.579 | 4.581 Mbytes
Step Temp E_pair E_mol TotEng Press Volume Lx Ly Lz S/CPU 
   17000    297.26506   -10502.193            0   -9616.9885   -4308.5282    780.01094    9.2052071    9.2052071    9.2052071            0 
   17100    296.58641   -10509.284            0   -9626.1008     2729.772    781.37571    9.2105727    9.2105727    9.2105727     45.02161 
   17200    295.02385   -10511.249            0   -9632.7184    13273.383    783.00551    9.2169721    9.2169721    9.2169721    28.378746 
   17300    293.14023   -10511.784            0   -9638.8621    -5283.171    784.77202    9.2238982    9.2238982    9.2238982    41.729858 
   17400    289.97475   -10505.007            0    -9641.512   -14771.815     786.0505    9.2289044    9.2289044    9.2289044    36.409685 
   17500    292.97317   -10515.273            0   -9642.8484   -3655.3664    786.57833    9.2309697    9.2309697    9.2309697    44.351728 
   17600    286.33846   -10495.231            0   -9642.5636   -3941.6419    786.26684     9.229751     9.229751     9.229751    36.457577 
   17700    298.17405   -10529.882            0   -9641.9711    4803.6541    785.27343    9.2258623    9.2258623    9.2258623    36.007615 
   17800    292.72442   -10510.179            0   -9638.4952   -8317.1065    784.05432    9.2210855    9.2210855    9.2210855    34.158842 
   17900    287.92166   -10490.863            0   -9633.4819   -4357.5094    782.67138    9.2156609    9.2156609    9.2156609    33.730177 
   18000    291.87548   -10497.405            0   -9628.2492    4144.1713    781.17088    9.2097678    9.2097678    9.2097678    33.678288 
Loop time of 27.5241 on 16 procs for 1000 steps with 1000 atoms

Performance: 3.139 ns/day, 7.646 hours/ns, 36.332 timesteps/s
94.4% CPU use with 16 MPI tasks x no OpenMP threads

MPI task timing breakdown:
Section |  min time  |  avg time  |  max time  |%varavg| %total
---------------------------------------------------------------
Pair    | 2.266      | 2.4787     | 2.7193     |   7.0 |  9.01
Neigh   | 0.75952    | 0.81896    | 0.88496    |   3.6 |  2.98
Comm    | 0.67478    | 0.98209    | 1.2553     |  14.3 |  3.57
Output  | 16.342     | 16.769     | 23.095     |  39.9 | 60.92
Modify  | 0.14163    | 6.4671     | 6.8946     |  64.2 | 23.50
Other   |            | 0.008323   |            |       |  0.03

Nlocal:    62.5 ave 70 max 57 min
Histogram: 2 2 0 4 1 4 1 1 0 1
Nghost:    1864.94 ave 1880 max 1850 min
Histogram: 1 1 1 2 3 3 2 0 1 2
Neighs:    0 ave 0 max 0 min
Histogram: 16 0 0 0 0 0 0 0 0 0
FullNghs:  18888.5 ave 21326 max 17245 min
Histogram: 2 2 1 3 4 1 1 1 0 1

Total # of neighbors = 302216
Ave neighs/atom = 302.216
Neighbor list builds = 1000
Dangerous builds not checked
Setting up Verlet run ...
  Unit style    : real
  Current step  : 18000
  Time step     : 1
Per MPI rank memory allocation (min/avg/max) = 4.577 | 4.579 | 4.581 Mbytes
Step Temp E_pair E_mol TotEng Press Volume Lx Ly Lz S/CPU 
   18000    291.87548   -10497.405            0   -9628.2492    4144.1713    781.17088    9.2097678    9.2097678    9.2097678            0 
   18100    297.11305   -10507.073            0   -9622.3209    -4608.314    779.88484     9.204711     9.204711     9.204711    40.316079 
   18200    296.02806   -10498.114            0   -9616.5929    6730.5484    778.71269    9.2000973    9.2000973    9.2000973    33.817621 
   18300    305.42912   -10522.254            0    -9612.738      7713.62    777.95479    9.1971115    9.1971115    9.1971115    42.608314 
   18400    301.57905   -10507.149            0   -9609.0985    18342.831    777.90554    9.1969175    9.1969175    9.1969175    32.948212 
   18500    289.43486   -10467.577            0    -9605.689    6103.2897    778.83505    9.2005791    9.2005791    9.2005791    38.060368 
   18600    297.31157   -10491.287            0   -9605.9442    5446.7505    780.54427    9.2073046    9.2073046    9.2073046    34.014307 
   18700    303.98827   -10510.022            0   -9604.7971    1791.2577    782.70787    9.2158041    9.2158041    9.2158041    41.867045 
   18800    297.09888   -10488.784            0   -9604.0743   -14159.507    784.98638     9.224738     9.224738     9.224738    30.729258 
   18900    301.52861   -10500.508            0   -9602.6075    9006.1514    786.91287    9.2322782    9.2322782    9.2322782    40.309572 
   19000    304.12835   -10508.024            0   -9602.3816   -7557.3292    788.50578    9.2385035    9.2385035    9.2385035    32.654896 
Loop time of 27.5727 on 16 procs for 1000 steps with 1000 atoms

Performance: 3.134 ns/day, 7.659 hours/ns, 36.268 timesteps/s
94.4% CPU use with 16 MPI tasks x no OpenMP threads

MPI task timing breakdown:
Section |  min time  |  avg time  |  max time  |%varavg| %total
---------------------------------------------------------------
Pair    | 2.4017     | 2.4962     | 2.7252     |   5.2 |  9.05
Neigh   | 0.78639    | 0.81735    | 0.88147    |   2.9 |  2.96
Comm    | 0.62468    | 0.90048    | 1.013      |  10.9 |  3.27
Output  | 16.7       | 17.112     | 23.192     |  38.0 | 62.06
Modify  | 0.14081    | 6.2386     | 6.6655     |  63.0 | 22.63
Other   |            | 0.008377   |            |       |  0.03

Nlocal:    62.5 ave 67 max 55 min
Histogram: 1 0 1 1 2 1 3 2 3 2
Nghost:    1855.12 ave 1881 max 1825 min
Histogram: 1 1 0 3 1 3 3 1 2 1
Neighs:    0 ave 0 max 0 min
Histogram: 16 0 0 0 0 0 0 0 0 0
FullNghs:  18721.2 ave 20207 max 16164 min
Histogram: 1 0 1 2 1 1 2 3 3 2

Total # of neighbors = 299540
Ave neighs/atom = 299.54
Neighbor list builds = 1000
Dangerous builds not checked
Setting up Verlet run ...
  Unit style    : real
  Current step  : 19000
  Time step     : 1
Per MPI rank memory allocation (min/avg/max) = 4.577 | 4.579 | 4.581 Mbytes
Step Temp E_pair E_mol TotEng Press Volume Lx Ly Lz S/CPU 
   19000    304.12835   -10508.024            0   -9602.3816   -7557.3292    788.50578    9.2385035    9.2385035    9.2385035            0 
   19100    296.43013   -10483.182            0   -9600.4632   -2713.1703    789.32831    9.2417147    9.2417147    9.2417147    40.351171 
   19200    286.80344   -10452.497            0   -9598.4452   -3444.7088    789.62422    9.2428695    9.2428695    9.2428695    37.700354 
   19300    303.11766   -10499.996            0   -9597.3638   -2309.3587    789.20294    9.2412255    9.2412255    9.2412255    37.078731 
   19400    298.62974   -10484.349            0   -9595.0803   -9916.1474    788.22959    9.2374247    9.2374247    9.2374247    43.050662 
   19500    289.20056   -10452.796            0   -9591.6057   -5440.2575    787.02709    9.2327249    9.2327249    9.2327249    33.279056 
   19600    307.70219   -10505.721            0   -9589.4365    940.79766     785.5423    9.2269151    9.2269151    9.2269151    40.511166 
   19700    309.90478    -10509.36            0   -9586.5168     8469.198    784.04552     9.221051     9.221051     9.221051    39.837273 
   19800    309.31617   -10505.684            0   -9584.5934   -7216.9749    782.93646    9.2167011    9.2167011    9.2167011    39.406329 
   19900    318.66836   -10531.471            0   -9582.5312    14296.872    782.09146    9.2133842    9.2133842    9.2133842    39.288146 
   20000    297.57349   -10465.398            0   -9579.2754    12426.188    782.07832    9.2133326    9.2133326    9.2133326    32.139474 
Loop time of 26.3285 on 16 procs for 1000 steps with 1000 atoms

Performance: 3.282 ns/day, 7.313 hours/ns, 37.982 timesteps/s
94.4% CPU use with 16 MPI tasks x no OpenMP threads

MPI task timing breakdown:
Section |  min time  |  avg time  |  max time  |%varavg| %total
---------------------------------------------------------------
Pair    | 2.32       | 2.4278     | 2.5452     |   4.3 |  9.22
Neigh   | 0.76835    | 0.80717    | 0.84291    |   2.2 |  3.07
Comm    | 0.73513    | 0.88506    | 1.0271     |   8.9 |  3.36
Output  | 15.433     | 15.863     | 22.089     |  40.4 | 60.25
Modify  | 0.1165     | 6.3375     | 6.767      |  63.8 | 24.07
Other   |            | 0.008268   |            |       |  0.03

Nlocal:    62.5 ave 67 max 53 min
Histogram: 1 0 0 0 1 2 3 5 1 3
Nghost:    1864.31 ave 1889 max 1843 min
Histogram: 3 2 1 1 2 1 1 1 2 2
Neighs:    0 ave 0 max 0 min
Histogram: 16 0 0 0 0 0 0 0 0 0
FullNghs:  18877.1 ave 20495 max 15832 min
Histogram: 1 0 0 0 1 3 6 1 3 1

Total # of neighbors = 302034
Ave neighs/atom = 302.034
Neighbor list builds = 1000
Dangerous builds not checked
Setting up Verlet run ...
  Unit style    : real
  Current step  : 20000
  Time step     : 1
Per MPI rank memory allocation (min/avg/max) = 4.577 | 4.579 | 4.581 Mbytes
Step Temp E_pair E_mol TotEng Press Volume Lx Ly Lz S/CPU 
   20000    297.57349   -10465.398            0   -9579.2754    12426.188    782.07832    9.2133326    9.2133326    9.2133326            0 
   20100    304.41458   -10486.472            0   -9579.9769    17162.675    782.31788    9.2142732    9.2142732    9.2142732      37.3646 
   20200    304.77621   -10488.174            0   -9580.6029   -11008.843    782.72579    9.2158744    9.2158744    9.2158744    36.139052 
   20300    308.81269   -10501.528            0   -9581.9363    12633.044    783.14818    9.2175319    9.2175319    9.2175319    39.004252 
   20400    304.42429   -10490.719            0   -9584.1949   -4826.6665    784.51812    9.2229034    9.2229034    9.2229034    31.630382 
   20500    301.78156   -10486.737            0   -9588.0831    10051.732     786.4662     9.230531     9.230531     9.230531     36.95757 
   20600    287.18627   -10448.023            0   -9592.8311   -15385.014    788.69293    9.2392344    9.2392344    9.2392344    36.259187 
   20700    297.63447   -10485.586            0   -9599.2812   -13233.272    790.34591    9.2456845    9.2456845    9.2456845    39.303847 
   20800    299.57934   -10501.653            0   -9609.5572   -21280.938    790.72459    9.2471609    9.2471609    9.2471609     42.80018 
   20900     300.3195   -10513.389            0   -9619.0884   -21334.415    789.57757    9.2426875    9.2426875    9.2426875    31.630601 
   21000    300.23404   -10522.154            0   -9628.1083   -4000.6636    787.25099    9.2336003    9.2336003    9.2336003     42.65554 
Loop time of 27.0192 on 16 procs for 1000 steps with 1000 atoms

Performance: 3.198 ns/day, 7.505 hours/ns, 37.011 timesteps/s
94.4% CPU use with 16 MPI tasks x no OpenMP threads

MPI task timing breakdown:
Section |  min time  |  avg time  |  max time  |%varavg| %total
---------------------------------------------------------------
Pair    | 2.218      | 2.4095     | 2.5397     |   5.9 |  8.92
Neigh   | 0.75677    | 0.80348    | 0.83541    |   2.8 |  2.97
Comm    | 0.69887    | 0.85074    | 1.0889     |  12.3 |  3.15
Output  | 15.976     | 16.406     | 22.808     |  40.8 | 60.72
Modify  | 0.13908    | 6.5413     | 6.9718     |  64.6 | 24.21
Other   |            | 0.008288   |            |       |  0.03

Nlocal:    62.5 ave 67 max 59 min
Histogram: 1 2 3 2 0 3 2 2 0 1
Nghost:    1854.12 ave 1873 max 1835 min
Histogram: 2 1 3 1 2 0 1 3 1 2
Neighs:    0 ave 0 max 0 min
Histogram: 16 0 0 0 0 0 0 0 0 0
FullNghs:  18735.2 ave 20306 max 17603 min
Histogram: 2 1 4 1 3 0 4 0 0 1

Total # of neighbors = 299764
Ave neighs/atom = 299.764
Neighbor list builds = 1000
Dangerous builds not checked
Setting up Verlet run ...
  Unit style    : real
  Current step  : 21000
  Time step     : 1
Per MPI rank memory allocation (min/avg/max) = 4.577 | 4.579 | 4.581 Mbytes
Step Temp E_pair E_mol TotEng Press Volume Lx Ly Lz S/CPU 
   21000    300.23404   -10522.154            0   -9628.1083   -4000.6636    787.25099    9.2336003    9.2336003    9.2336003            0 
   21100    288.99129   -10496.696            0   -9636.1297   -3296.6105    784.20179    9.2216636    9.2216636    9.2216636    36.416841 
   21200    296.02071   -10525.075            0   -9643.5758    3942.9795    780.69197    9.2078854    9.2078854    9.2078854    35.237436 
   21300    294.09794   -10523.538            0   -9647.7648    13988.288    777.37655    9.1948323    9.1948323    9.1948323    40.019286 
   21400    292.81815   -10523.495            0   -9651.5322    11918.073    774.65994    9.1841091    9.1841091    9.1841091    35.562026 
   21500    294.73472   -10531.273            0   -9653.6036    33070.204    772.62712    9.1760686    9.1760686    9.1760686    45.888172 
   21600    284.94876   -10504.352            0   -9655.8234    13140.358    772.12775    9.1740912    9.1740912    9.1740912     30.34344 
   21700    295.00898   -10537.439            0   -9658.9526    28833.671    773.11508    9.1779999    9.1779999    9.1779999    34.987656 
   21800    311.05619   -10587.038            0   -9660.7654    9366.5631    775.71579    9.1882798    9.1882798    9.1882798    44.978097 
   21900     290.7257   -10526.292            0   -9660.5603    3276.6403    779.48873    9.2031524    9.2031524    9.2031524    38.055758 
   22000    300.40865   -10554.872            0   -9660.3066   -10101.104    783.95555    9.2206983    9.2206983    9.2206983     33.55999 
Loop time of 27.0584 on 16 procs for 1000 steps with 1000 atoms

Performance: 3.193 ns/day, 7.516 hours/ns, 36.957 timesteps/s
94.4% CPU use with 16 MPI tasks x no OpenMP threads

MPI task timing breakdown:
Section |  min time  |  avg time  |  max time  |%varavg| %total
---------------------------------------------------------------
Pair    | 2.3012     | 2.5511     | 2.6648     |   5.3 |  9.43
Neigh   | 0.78099    | 0.83171    | 0.89821    |   3.2 |  3.07
Comm    | 0.75956    | 0.93739    | 1.237      |  11.3 |  3.46
Output  | 16.516     | 16.902     | 22.634     |  36.0 | 62.46
Modify  | 0.09144    | 5.8277     | 6.2153     |  61.4 | 21.54
Other   |            | 0.008443   |            |       |  0.03

Nlocal:    62.5 ave 69 max 58 min
Histogram: 4 1 1 1 3 2 2 0 0 2
Nghost:    1854.62 ave 1879 max 1827 min
Histogram: 1 2 1 0 2 5 1 0 2 2
Neighs:    0 ave 0 max 0 min
Histogram: 16 0 0 0 0 0 0 0 0 0
FullNghs:  18842.9 ave 20857 max 17233 min
Histogram: 2 2 1 2 2 2 3 0 0 2

Total # of neighbors = 301486
Ave neighs/atom = 301.486
Neighbor list builds = 1000
Dangerous builds not checked
Setting up Verlet run ...
  Unit style    : real
  Current step  : 22000
  Time step     : 1
Per MPI rank memory allocation (min/avg/max) = 4.577 | 4.579 | 4.581 Mbytes
Step Temp E_pair E_mol TotEng Press Volume Lx Ly Lz S/CPU 
   22000    300.40865   -10554.872            0   -9660.3066   -10101.104    783.95555    9.2206983    9.2206983    9.2206983            0 
   22100    292.26759   -10526.715            0   -9656.3916   -26734.637    788.19387    9.2372852    9.2372852    9.2372852    43.040885 
   22200     302.5205   -10551.603            0   -9650.7488   -21679.906    791.22638    9.2491166    9.2491166    9.2491166    31.726015 
   22300    292.71927   -10511.646            0   -9639.9782   -18949.694    792.94365    9.2558031    9.2558031    9.2558031    39.603723 
   22400    294.48736   -10503.019            0   -9626.0862   -7146.7083    793.77056    9.2590194    9.2590194    9.2590194    37.202445 
   22500    296.34195    -10490.96            0   -9608.5044   -8399.0834    793.90823    9.2595547    9.2595547    9.2595547    32.797593 
   22600    302.58467   -10494.857            0   -9593.8119   -11899.362    793.22727    9.2569065    9.2569065    9.2569065    40.498754 
   22700    299.44148   -10474.019            0    -9582.333   -10766.739    791.63206     9.250697     9.250697     9.250697    36.041429 
   22800    299.68282   -10466.845            0   -9574.4407   -13063.636    789.27967    9.2415249    9.2415249    9.2415249    39.140406 
   22900    304.05667   -10475.061            0   -9569.6321   -9902.8407    786.71848    9.2315179    9.2315179    9.2315179    38.978947 
   23000    300.23961    -10459.36            0   -9565.2977    1479.5867    784.20964    9.2216944    9.2216944    9.2216944     35.81542 
Loop time of 26.8937 on 16 procs for 1000 steps with 1000 atoms

Performance: 3.213 ns/day, 7.470 hours/ns, 37.183 timesteps/s
94.3% CPU use with 16 MPI tasks x no OpenMP threads

MPI task timing breakdown:
Section |  min time  |  avg time  |  max time  |%varavg| %total
---------------------------------------------------------------
Pair    | 2.2654     | 2.3682     | 2.5211     |   5.4 |  8.81
Neigh   | 0.75501    | 0.79461    | 0.83483    |   2.8 |  2.95
Comm    | 0.76353    | 0.95565    | 1.0982     |  10.9 |  3.55
Output  | 15.897     | 16.328     | 22.687     |  40.6 | 60.71
Modify  | 0.079341   | 6.4388     | 6.8703     |  64.7 | 23.94
Other   |            | 0.008159   |            |       |  0.03

Nlocal:    62.5 ave 67 max 56 min
Histogram: 2 0 0 0 1 5 2 4 0 2
Nghost:    1856.44 ave 1872 max 1833 min
Histogram: 1 0 0 2 3 2 2 2 2 2
Neighs:    0 ave 0 max 0 min
Histogram: 16 0 0 0 0 0 0 0 0 0
FullNghs:  18819.1 ave 20358 max 16881 min
Histogram: 2 0 0 0 4 4 1 3 0 2

Total # of neighbors = 301106
Ave neighs/atom = 301.106
Neighbor list builds = 1000
Dangerous builds not checked
Setting up Verlet run ...
  Unit style    : real
  Current step  : 23000
  Time step     : 1
Per MPI rank memory allocation (min/avg/max) = 4.577 | 4.579 | 4.581 Mbytes
Step Temp E_pair E_mol TotEng Press Volume Lx Ly Lz S/CPU 
   23000    300.23961    -10459.36            0   -9565.2977    1479.5867    784.20964    9.2216944    9.2216944    9.2216944            0 
   23100    322.82312   -10526.793            0   -9565.4808    14682.998    781.96349    9.2128816    9.2128816    9.2128816    35.427256 
   23200    311.55084   -10492.003            0   -9564.2576    19602.348    780.30063    9.2063466    9.2063466    9.2063466     43.78239 
   23300    302.83844   -10467.855            0   -9566.0537    24397.645    779.31227    9.2024579    9.2024579    9.2024579    37.776181 
   23400    294.99115   -10447.188            0   -9568.7544    12428.431    779.02409    9.2013234    9.2013234    9.2013234    39.498354 
   23500    294.55833   -10450.797            0    -9573.653    14276.479    779.54312    9.2033665    9.2033665    9.2033665    33.601264 
   23600    299.30459   -10470.898            0   -9579.6202    -5651.743    781.15412     9.209702     9.209702     9.209702    31.318607 
   23700    303.78315   -10492.391            0   -9587.7772   -4942.2537    782.87618    9.2164646    9.2164646    9.2164646    32.844263 
   23800    301.97843   -10495.221            0   -9595.9806   -957.67729    784.00394     9.220888     9.220888     9.220888    35.760228 
   23900     303.0815   -10505.182            0   -9602.6568    -10997.07    785.08321    9.2251173    9.2251173    9.2251173    32.733982 
   24000    304.80854   -10517.441            0   -9609.7733    2889.3127    785.65955    9.2273742    9.2273742    9.2273742    39.481193 
Loop time of 27.8836 on 16 procs for 1000 steps with 1000 atoms

Performance: 3.099 ns/day, 7.745 hours/ns, 35.863 timesteps/s
94.4% CPU use with 16 MPI tasks x no OpenMP threads

MPI task timing breakdown:
Section |  min time  |  avg time  |  max time  |%varavg| %total
---------------------------------------------------------------
Pair    | 2.3132     | 2.4889     | 2.6321     |   6.1 |  8.93
Neigh   | 0.7632     | 0.81724    | 0.85838    |   3.4 |  2.93
Comm    | 0.79619    | 0.96908    | 1.2012     |  12.9 |  3.48
Output  | 16.426     | 16.872     | 23.517     |  41.8 | 60.51
Modify  | 0.081801   | 6.7277     | 7.1885     |  66.2 | 24.13
Other   |            | 0.008355   |            |       |  0.03

Nlocal:    62.5 ave 68 max 58 min
Histogram: 1 2 1 1 4 0 3 3 0 1
Nghost:    1851.56 ave 1865 max 1837 min
Histogram: 1 0 2 4 1 2 2 1 1 2
Neighs:    0 ave 0 max 0 min
Histogram: 16 0 0 0 0 0 0 0 0 0
FullNghs:  18773.6 ave 20442 max 17345 min
Histogram: 2 1 1 3 2 2 3 1 0 1

Total # of neighbors = 300378
Ave neighs/atom = 300.378
Neighbor list builds = 1000
Dangerous builds not checked
Setting up Verlet run ...
  Unit style    : real
  Current step  : 24000
  Time step     : 1
Per MPI rank memory allocation (min/avg/max) = 4.577 | 4.579 | 4.581 Mbytes
Step Temp E_pair E_mol TotEng Press Volume Lx Ly Lz S/CPU 
   24000    304.80854   -10517.441            0   -9609.7733    2889.3127    785.65955    9.2273742    9.2273742    9.2273742            0 
   24100    289.12619   -10477.009            0   -9616.0407   -17189.588    786.02155    9.2287911    9.2287911    9.2287911    30.197937 
   24200    295.83692   -10504.773            0    -9623.821   -4485.8036    785.96943    9.2285872    9.2285872    9.2285872    40.388382 
   24300    292.68497   -10501.605            0   -9630.0388    493.97197    785.73777    9.2276804    9.2276804    9.2276804    34.900761 
   24400    298.98651    -10524.88            0   -9634.5491    6909.1218     785.0244    9.2248869    9.2248869    9.2248869    41.154229 
   24500    294.77169    -10516.17            0   -9638.3905    4701.4489    783.84063    9.2202477    9.2202477    9.2202477     38.22527 
   24600    285.08058   -10489.973            0   -9641.0516    6590.6046    782.38953    9.2145545    9.2145545    9.2145545     37.31515 
   24700    300.25255   -10539.487            0   -9645.3865   -2117.1835    780.76006     9.208153     9.208153     9.208153    37.145382 
   24800    294.47807   -10523.237            0   -9646.3318    3709.5937    779.14303    9.2017917    9.2017917    9.2017917    34.184911 
   24900    299.05854    -10538.32            0   -9647.7747    191.96002    778.07262    9.1975758    9.1975758    9.1975758    40.155686 
   25000    296.56425   -10533.948            0   -9650.8307    9339.4073     777.3697    9.1948053    9.1948053    9.1948053    32.735465 
Loop time of 27.5411 on 16 procs for 1000 steps with 1000 atoms

Performance: 3.137 ns/day, 7.650 hours/ns, 36.309 timesteps/s
94.4% CPU use with 16 MPI tasks x no OpenMP threads

MPI task timing breakdown:
Section |  min time  |  avg time  |  max time  |%varavg| %total
---------------------------------------------------------------
Pair    | 2.3209     | 2.4498     | 2.5629     |   5.1 |  8.89
Neigh   | 0.76932    | 0.80919    | 0.86611    |   3.2 |  2.94
Comm    | 0.78507    | 0.94835    | 1.116      |  10.8 |  3.44
Output  | 16.702     | 17.109     | 23.162     |  37.8 | 62.12
Modify  | 0.15465    | 6.2161     | 6.6271     |  62.8 | 22.57
Other   |            | 0.008296   |            |       |  0.03

Nlocal:    62.5 ave 69 max 57 min
Histogram: 2 0 2 1 3 5 1 1 0 1
Nghost:    1869.44 ave 1892 max 1846 min
Histogram: 1 1 1 2 3 4 0 2 0 2
Neighs:    0 ave 0 max 0 min
Histogram: 16 0 0 0 0 0 0 0 0 0
FullNghs:  18997.8 ave 21096 max 17209 min
Histogram: 2 0 1 2 4 3 2 1 0 1

Total # of neighbors = 303964
Ave neighs/atom = 303.964
Neighbor list builds = 1000
Dangerous builds not checked
Setting up Verlet run ...
  Unit style    : real
  Current step  : 25000
  Time step     : 1
Per MPI rank memory allocation (min/avg/max) = 4.577 | 4.579 | 4.581 Mbytes
Step Temp E_pair E_mol TotEng Press Volume Lx Ly Lz S/CPU 
   25000    296.56425   -10533.948            0   -9650.8307    9339.4073     777.3697    9.1948053    9.1948053    9.1948053            0 
   25100     297.4424   -10537.528            0   -9651.7952    3728.0362    776.92852    9.1930655    9.1930655    9.1930655    45.567893 
   25200    290.52594    -10517.49            0   -9652.3537    8907.7625    777.17065    9.1940204    9.1940204    9.1940204    34.429203 
   25300    287.89248   -10508.856            0   -9651.5616   -2197.8497     778.0366    9.1974339    9.1974339    9.1974339    39.430714 
   25400    293.60558   -10525.931            0   -9651.6237    -15015.04    779.11786    9.2016926    9.2016926    9.2016926    45.808511 
   25500    293.99126   -10523.986            0   -9648.5305    8287.2531     779.5517    9.2034002    9.2034002    9.2034002    28.882864 
   25600    301.80877   -10542.366            0   -9643.6314    5395.6066     780.2606    9.2061891    9.2061891    9.2061891    38.677568 
   25700    320.12844   -10591.886            0   -9638.5986   -218.97872    781.36101     9.210515     9.210515     9.210515    38.794786 
   25800    285.25368   -10480.564            0   -9631.1268    6444.1757    782.25672    9.2140331    9.2140331    9.2140331    30.769745 
   25900    289.24443   -10482.944            0   -9621.6232   -10387.349    783.01116    9.2169943    9.2169943    9.2169943    32.513505 
   26000    298.98438   -10502.985            0   -9612.6602    -14033.13    783.39209    9.2184887    9.2184887    9.2184887     29.05226 
Loop time of 28.2112 on 16 procs for 1000 steps with 1000 atoms

Performance: 3.063 ns/day, 7.836 hours/ns, 35.447 timesteps/s
94.3% CPU use with 16 MPI tasks x no OpenMP threads

MPI task timing breakdown:
Section |  min time  |  avg time  |  max time  |%varavg| %total
---------------------------------------------------------------
Pair    | 2.2658     | 2.4719     | 2.7213     |   6.3 |  8.76
Neigh   | 0.75814    | 0.80938    | 0.86779    |   3.2 |  2.87
Comm    | 0.68277    | 0.99787    | 1.256      |  12.7 |  3.54
Output  | 16.403     | 16.872     | 23.797     |  43.5 | 59.80
Modify  | 0.13388    | 7.0521     | 7.521      |  67.3 | 25.00
Other   |            | 0.008297   |            |       |  0.03

Nlocal:    62.5 ave 69 max 58 min
Histogram: 2 2 4 0 3 1 1 2 0 1
Nghost:    1853.56 ave 1877 max 1832 min
Histogram: 1 1 3 0 4 1 3 1 1 1
Neighs:    0 ave 0 max 0 min
Histogram: 16 0 0 0 0 0 0 0 0 0
FullNghs:  18829.9 ave 20841 max 17408 min
Histogram: 2 2 2 2 3 1 1 2 0 1

Total # of neighbors = 301278
Ave neighs/atom = 301.278
Neighbor list builds = 1000
Dangerous builds not checked
Setting up Verlet run ...
  Unit style    : real
  Current step  : 26000
  Time step     : 1
Per MPI rank memory allocation (min/avg/max) = 4.577 | 4.579 | 4.581 Mbytes
Step Temp E_pair E_mol TotEng Press Volume Lx Ly Lz S/CPU 
   26000    298.98438   -10502.985            0   -9612.6602    -14033.13    783.39209    9.2184887    9.2184887    9.2184887            0 
   26100    301.17778   -10501.503            0   -9604.6467   -5514.6399     783.3719    9.2184095    9.2184095    9.2184095    33.794504 
   26200    299.86762   -10487.106            0   -9594.1516   -9320.1196    783.21459    9.2177924    9.2177924    9.2177924    36.016725 
   26300    297.63059   -10473.382            0   -9587.0889    16345.458    783.05336    9.2171598    9.2171598    9.2171598    25.503115 
   26400     301.3032   -10478.595            0   -9581.3659    21642.341    783.76018    9.2199323    9.2199323    9.2199323    23.977599 
   26500    315.43372   -10516.937            0   -9577.6291    12112.124     785.5691    9.2270201    9.2270201    9.2270201    37.018838 
   26600    307.71525   -10489.443            0   -9573.1197    5790.5476    788.71443    9.2393183    9.2393183    9.2393183     26.29146 
   26700    300.41548   -10464.151            0    -9569.565    5670.8088    792.38074    9.2536124    9.2536124    9.2536124     39.72944 
   26800    301.01607   -10463.722            0   -9567.3474    7778.9015    796.11461    9.2681246    9.2681246    9.2681246    36.790583 
   26900    303.60263    -10468.19            0   -9564.1131   -7280.7925    799.98735    9.2831287    9.2831287    9.2831287    47.666331 
   27000    298.42207   -10449.126            0   -9560.4762   -19183.815    803.19508    9.2955198    9.2955198    9.2955198    45.120492 
Loop time of 29.8814 on 16 procs for 1000 steps with 1000 atoms

Performance: 2.891 ns/day, 8.300 hours/ns, 33.466 timesteps/s
94.3% CPU use with 16 MPI tasks x no OpenMP threads

MPI task timing breakdown:
Section |  min time  |  avg time  |  max time  |%varavg| %total
---------------------------------------------------------------
Pair    | 2.3592     | 2.4452     | 2.6071     |   4.2 |  8.18
Neigh   | 0.78985    | 0.81751    | 0.86174    |   2.4 |  2.74
Comm    | 0.67621    | 0.88224    | 0.99102    |   9.0 |  2.95
Output  | 18.508     | 18.954     | 25.596     |  39.4 | 63.43
Modify  | 0.13465    | 6.7739     | 7.2202     |  65.9 | 22.67
Other   |            | 0.008291   |            |       |  0.03

Nlocal:    62.5 ave 68 max 58 min
Histogram: 2 3 0 0 2 3 2 0 3 1
Nghost:    1824 ave 1832 max 1812 min
Histogram: 1 0 0 1 2 4 4 0 0 4
Neighs:    0 ave 0 max 0 min
Histogram: 16 0 0 0 0 0 0 0 0 0
FullNghs:  18381.4 ave 20208 max 17053 min
Histogram: 5 0 0 2 1 3 3 1 0 1

Total # of neighbors = 294102
Ave neighs/atom = 294.102
Neighbor list builds = 1000
Dangerous builds not checked
Setting up Verlet run ...
  Unit style    : real
  Current step  : 27000
  Time step     : 1
Per MPI rank memory allocation (min/avg/max) = 4.577 | 4.579 | 4.581 Mbytes
Step Temp E_pair E_mol TotEng Press Volume Lx Ly Lz S/CPU 
   27000    298.42207   -10449.126            0   -9560.4762   -19183.815    803.19508    9.2955198    9.2955198    9.2955198            0 
   27100    308.99102    -10475.92            0   -9555.7976   -10242.195    805.17923    9.3031678    9.3031678    9.3031678    34.759548 
   27200    293.56802   -10424.245            0   -9550.0491   -19224.491    805.78039    9.3054825    9.3054825    9.3054825    41.412636 
   27300    291.75009   -10412.169            0   -9543.3869   -17549.381    804.94151    9.3022521    9.3022521    9.3022521    28.259535 
   27400    297.38242   -10422.532            0   -9536.9776   -19483.756    802.50701    9.2928646    9.2928646    9.2928646    45.845428 
   27500     310.8906     -10454.3            0   -9528.5213    3369.0394    798.56982    9.2776424    9.2776424    9.2776424    41.988659 
   27600    300.62199   -10413.054            0   -9517.8532   -7334.2097    794.11822     9.260371     9.260371     9.260371    33.820745 
   27700    320.73243   -10461.622            0   -9506.5361    12567.102    789.50587    9.2424077    9.2424077    9.2424077    48.549808 
   27800    321.69325   -10453.932            0   -9495.9844    11966.451    785.83662    9.2280673    9.2280673    9.2280673    36.323317 
   27900    314.71524   -10427.491            0    -9490.323    17595.241    783.26224    9.2179793    9.2179793    9.2179793    41.964705 
   28000      325.706   -10457.177            0   -9487.2799    549.31937     781.9028    9.2126433    9.2126433    9.2126433     40.07577 
Loop time of 26.0409 on 16 procs for 1000 steps with 1000 atoms

Performance: 3.318 ns/day, 7.234 hours/ns, 38.401 timesteps/s
[...]
 1321700    308.54725   -11389.296            0   -10470.495   -3870.3492    756.76214    9.1128271    9.1128271    9.1128271     47.16986 
 1321800    298.85052   -11359.127            0   -10469.202   -256.24089    755.12584    9.1062543    9.1062543    9.1062543    37.240706 
 1321900    317.90718   -11419.911            0   -10473.238    1576.7203    753.39991    9.0993112    9.0993112    9.0993112    45.129119 
 1322000    295.56164   -11354.802            0    -10474.67    16146.132    751.81402    9.0929221    9.0929221    9.0929221     44.13698 
 1322100    306.35273   -11392.382            0   -10480.116    4657.8002     750.8052    9.0888532    9.0888532    9.0888532    42.173317 
 1322200    304.78142   -11394.803            0   -10487.216    3273.9397    750.67285    9.0883192    9.0883192    9.0883192    44.433021 
 1322300    304.61743   -11404.259            0   -10497.161    16595.024    751.08045    9.0899638    9.0899638    9.0899638    51.772578 
 1322400    301.63172   -11405.677            0   -10507.469    3109.8296    751.90496    9.0932888    9.0932888    9.0932888      50.3336 
 1322500    297.48178   -11405.439            0   -10519.589    -1094.499    752.82737    9.0970057    9.0970057    9.0970057    39.601718 
 1322600    300.82253   -11426.651            0   -10530.853    1995.2494    753.51751    9.0997847    9.0997847    9.0997847    53.652308 
 1322700    292.10124   -11410.033            0   -10540.205    -11431.24    753.83151    9.1010485    9.1010485    9.1010485    50.893378 
 1322800    289.16954   -11408.501            0   -10547.403   -3228.0325    753.50867    9.0997491    9.0997491    9.0997491    42.116498 
 1322900    287.76307   -11410.227            0   -10553.318   -2756.2453    752.94822    9.0974924    9.0974924    9.0974924    47.089779 
 1323000    291.64671   -11425.721            0   -10557.247   -14957.879     752.2852    9.0948214    9.0948214    9.0948214    45.905528 
 1323100    301.71896   -11458.971            0   -10560.504     7287.586    751.40358    9.0912671    9.0912671    9.0912671    45.246709 
 1323200    285.24677   -11408.961            0   -10559.545   -2134.6835    750.66763    9.0882981    9.0882981    9.0882981    48.056109 
 1323300    300.55054   -11455.165            0   -10560.176    7419.0799    750.23374    9.0865467    9.0865467    9.0865467     44.32111 
 1323400    298.82728   -11450.126            0    -10560.27    8024.7917    750.15661    9.0862353    9.0862353    9.0862353    50.599467 
 1323500     301.0445   -11453.842            0   -10557.382    176.07207    750.62966    9.0881449    9.0881449    9.0881449    51.829017 
 1323600    289.70028   -11417.126            0   -10554.448    14744.488    751.58545    9.0920006    9.0920006    9.0920006    38.126293 
 1323700    292.23617   -11420.263            0   -10550.034   -11237.863    752.73241    9.0966232    9.0966232    9.0966232    45.552316 
 1323800    284.61783   -11391.811            0   -10544.268    6819.4838    753.55246    9.0999254    9.0999254    9.0999254    40.969177 
 1323900    298.68655   -11429.214            0   -10539.776   -333.25571    754.13941    9.1022874    9.1022874    9.1022874    35.758493 
 1324000    301.97275   -11434.306            0   -10535.083   -18519.276    754.27204     9.102821     9.102821     9.102821    41.760186 
 1324100     302.5503   -11428.486            0   -10527.543   -20871.972    753.30367    9.0989238    9.0989238    9.0989238    44.546756 
 1324200    303.72361   -11424.492            0   -10520.055   -3457.2199    751.60505    9.0920796    9.0920796    9.0920796    45.668032 
 1324300    304.25939   -11419.804            0   -10513.771   -7807.5756    749.94715    9.0853895    9.0853895    9.0853895    40.717951 
 1324400    310.29066   -11430.339            0   -10506.346    17851.641    748.62891    9.0800631    9.0800631    9.0800631    50.529321 
 1324500    298.53679   -11388.063            0   -10499.071    11546.461    748.14813    9.0781188    9.0781188    9.0781188    46.353953 
 1324600    301.10992   -11390.427            0   -10493.773    9654.4492     748.7237    9.0804463    9.0804463    9.0804463    36.732353 
 1324700    298.14323   -11374.264            0   -10486.444    13518.558    750.04106    9.0857687    9.0857687    9.0857687    51.161838 
 1324800    299.53012   -11373.179            0   -10481.229    5475.4616    751.79697    9.0928534    9.0928534    9.0928534    21.574891 
 1324900    308.59585   -11395.422            0   -10476.476    -10921.01    753.83957    9.1010809    9.1010809    9.1010809    42.301099 
 1325000    305.32879   -11380.032            0   -10470.815   -17052.631    755.54259    9.1079293    9.1079293    9.1079293    51.177001 
 1325100    299.47432   -11355.954            0   -10464.171   -4437.1324    756.72213    9.1126665    9.1126665    9.1126665    48.458072 
 1325200    299.08097   -11345.309            0   -10454.697   -7815.8783     757.3661    9.1152507    9.1152507    9.1152507    49.412268 
 1325300    300.61431   -11333.178            0       -10438   -4447.6329    757.35287    9.1151977    9.1151977    9.1151977    48.160426 
 1325400    326.77359   -11389.603            0   -10416.527   -20394.414    756.81468     9.113038     9.113038     9.113038    48.029877 
 1325500    315.91074    -11336.04            0   -10395.312   -14237.847    756.31885    9.1110475    9.1110475    9.1110475    37.627621 
 1325600    321.73235   -11341.128            0   -10383.064     -4034.93    755.69908    9.1085581    9.1085581    9.1085581     50.79971 
 1325700    312.88709   -11308.597            0   -10376.873    10082.523    754.90849    9.1053806    9.1053806    9.1053806    42.444834 
 1325800    323.66853   -11339.008            0   -10375.178   -3293.9493    754.25266    9.1027431    9.1027431    9.1027431    42.841606 
 1325900    321.42966   -11334.756            0   -10377.593     8265.292    753.90752    9.1013544    9.1013544    9.1013544    46.293478 
 1326000    307.77506   -11301.576            0   -10385.075     6576.976    753.91439     9.101382     9.101382     9.101382     40.72895 
 1326100    315.55238   -11335.379            0   -10395.717    9009.9852    754.17069    9.1024133    9.1024133    9.1024133    40.634747 
 1326200    323.90851    -11374.95            0   -10410.406    4057.9592    754.40608    9.1033602    9.1033602    9.1033602    43.172692 
 1326300    314.07462   -11360.027            0   -10424.766    1069.7126     754.5542    9.1039559    9.1039559    9.1039559    40.108888 
 1326400    319.74964   -11391.701            0   -10439.541   -12634.896    754.55342    9.1039528    9.1039528    9.1039528    39.246273 
 1326500    309.64411   -11371.754            0   -10449.686   -6779.4178    754.21576    9.1025946    9.1025946    9.1025946    38.540115 
 1326600    305.27163   -11369.868            0   -10460.822   -7621.7574    753.59163     9.100083     9.100083     9.100083    44.339989 
 1326700    300.49248   -11364.744            0   -10469.929   -9982.6783    752.60431    9.0961071    9.0961071    9.0961071    44.800344 
 1326800    310.86002   -11405.513            0   -10479.825    2217.8359    751.19614    9.0904304    9.0904304    9.0904304    39.144864 
 1326900    292.29751   -11356.717            0   -10486.305    6388.5305    749.72089    9.0844758    9.0844758    9.0844758    43.816488 
 1327000    298.96583   -11384.789            0    -10494.52    16663.118    748.48414    9.0794777    9.0794777    9.0794777    41.997523 
 1327100     302.2994   -11402.117            0   -10501.921    19266.512    748.16815    9.0781999    9.0781999    9.0781999    41.685166 
 1327200    294.96675   -11389.026            0   -10510.666    19262.874     748.9636     9.081416     9.081416     9.081416    52.178128 
 1327300    295.16207   -11397.387            0   -10518.445   -648.22487     750.6495    9.0882249    9.0882249    9.0882249    52.149623 
 1327400    301.11967   -11422.588            0   -10525.905   -15046.759    752.43934    9.0954425    9.0954425    9.0954425    39.470621 
 1327500    297.21538   -11416.265            0   -10531.208   -9061.5178     753.8109    9.1009656    9.1009656    9.1009656    50.065705 
 1327600    291.32234   -11402.231            0   -10534.723   -10737.793    754.32394    9.1030298    9.1030298    9.1030298    44.323212 
 1327700    294.82156   -11415.947            0   -10538.019   -5092.0393    753.87857    9.1012379    9.1012379    9.1012379    41.604574 
 1327800    303.43125   -11444.363            0   -10540.796   -8669.1696    752.78905    9.0968514    9.0968514    9.0968514    46.121517 
 1327900    305.25701   -11449.344            0   -10540.341     4091.323    751.58436    9.0919962    9.0919962    9.0919962    41.029341 
 1328000     306.3822   -11453.115            0   -10540.761    4966.9138    750.61931    9.0881031    9.0881031    9.0881031     47.61396 
 1328100    292.80449   -11410.914            0   -10538.992    11523.108    750.26795    9.0866848    9.0866848    9.0866848    42.516649 
 1328200    305.47063   -11446.612            0   -10536.972   -620.07802    750.62306    9.0881182    9.0881182    9.0881182    47.609465 
 1328300    294.92777   -11409.637            0   -10531.393     7877.365    751.44812    9.0914468    9.0914468    9.0914468    43.712275 
 1328400    299.99099    -11417.34            0   -10524.018    428.22451    752.65322    9.0963042    9.0963042    9.0963042    41.798316 
 1328500    291.11158   -11380.178            0   -10513.297   -24290.617    753.89308    9.1012963    9.1012963    9.1012963      49.8191 
 1328600    300.77062   -11398.633            0   -10502.989   -4156.1839    754.63555    9.1042831    9.1042831    9.1042831    39.875216 
 1328700    292.69607   -11361.437            0   -10489.838   -7111.9151    754.94772    9.1055383    9.1055383    9.1055383    47.552685 
 1328800    300.15661   -11370.314            0   -10476.499   -5548.5602    754.75582    9.1047667    9.1047667    9.1047667    45.381206 
 1328900    297.30703   -11351.581            0   -10466.251   -9967.4374    754.23649     9.102678     9.102678     9.102678    41.868603 
 1329000    298.48815   -11346.513            0   -10457.667    1485.3596    753.15147     9.098311     9.098311     9.098311    44.130525 
 1329100    313.83182   -11389.925            0   -10455.388    10579.093    752.12592    9.0941794    9.0941794    9.0941794    38.310967 
 1329200    302.84288   -11353.712            0   -10451.898    25734.568    751.73011    9.0925839    9.0925839    9.0925839    42.560645 
 1329300    305.23802   -11359.796            0    -10450.85    28963.052    752.28461     9.094819     9.094819     9.094819    50.373041 
 1329400     310.0395   -11376.248            0   -10453.003    15017.451    753.83371    9.1010574    9.1010574    9.1010574    49.815436 
 1329500    313.57513   -11390.148            0   -10456.375    15326.018    755.93655     9.109512     9.109512     9.109512    48.271229 
 1329600    305.54808   -11369.284            0   -10459.414    -5472.542    758.56202    9.1200461    9.1200461    9.1200461    45.395776 
 1329700    295.34389   -11344.683            0   -10465.199   -12824.873    760.45738    9.1276356    9.1276356    9.1276356    40.045768 
 1329800    311.66397   -11399.934            0   -10471.852   -9963.1145    761.37216    9.1312941    9.1312941    9.1312941    46.361876 
 1329900    295.92175   -11357.125            0   -10475.921   -3224.6388    761.28157    9.1309319    9.1309319    9.1309319    43.515651 
 1330000    293.69876   -11356.215            0    -10481.63    -4055.442    760.08367    9.1261401    9.1261401    9.1261401    51.046118 
 1330100    305.27717    -11398.12            0   -10489.057   -9566.0269    757.91999    9.1174723    9.1174723    9.1174723    44.837847 
 1330200     300.9828   -11388.723            0   -10492.448    13750.347    755.00461     9.105767     9.105767     9.105767    40.229498 
 1330300    290.06736   -11359.673            0   -10495.902    22044.762    752.38347    9.0952173    9.0952173    9.0952173    55.555537 
 1330400    293.02188   -11368.858            0   -10496.289    12698.391    750.64266    9.0881973    9.0881973    9.0881973     46.53078 
 1330500    304.53827   -11406.983            0   -10500.121    3378.7375    749.68435    9.0843282    9.0843282    9.0843282    41.792189 
 1330600    295.23126   -11380.054            0   -10500.906    19338.609     749.6048    9.0840068    9.0840068    9.0840068    48.817741 
 1330700     304.0082   -11408.886            0   -10503.601    13104.832    750.66858    9.0883019    9.0883019    9.0883019    48.118982 
 1330800    298.84854   -11395.222            0   -10505.302    7478.4247    752.57009    9.0959693    9.0959693    9.0959693    41.288915 
 1330900    297.19768   -11391.056            0   -10506.052   -10720.781    754.95764    9.1055782    9.1055782    9.1055782    46.969437 
 1331000    305.89744   -11418.157            0   -10507.246   -23233.065    756.94878    9.1135762    9.1135762    9.1135762    36.551598 
 1331100    303.96623   -11411.195            0   -10506.036   -9475.4743    757.88299     9.117324     9.117324     9.117324    52.573716 
 1331200    301.45546   -11404.358            0   -10506.675   -17951.315    757.99646     9.117779     9.117779     9.117779    48.377934 
 1331300    310.54429   -11433.425            0   -10508.677   -10181.028    757.12464    9.1142819    9.1142819    9.1142819    38.817583 
 1331400    300.85182    -11406.25            0   -10510.364    -10447.65    755.27706    9.1068622    9.1068622    9.1068622    53.362884 
 1331500    307.87962   -11428.455            0   -10511.643    14938.174    752.80138     9.096901     9.096901     9.096901    51.902741 
 1331600    302.71308   -11413.673            0   -10512.245    21167.124    750.53114    9.0877472    9.0877472    9.0877472    37.773065 
 1331700    298.76012   -11403.605            0   -10513.949    13222.691    749.05641    9.0817911    9.0817911    9.0817911    44.225219 
 1331800    293.79705   -11389.982            0   -10515.105     18075.47    748.51497    9.0796024    9.0796024    9.0796024    49.609597 
 1331900    305.76628   -11429.348            0   -10518.828    10467.202    749.12629    9.0820735    9.0820735    9.0820735    36.667686 
 1332000    292.51652   -11392.503            0   -10521.439     7413.269    750.63344    9.0881601    9.0881601    9.0881601    41.309946 
 1332100    299.29704   -11418.615            0    -10527.36    9404.4081     753.3295    9.0990278    9.0990278    9.0990278     37.62303 
 1332200    304.82795   -11442.478            0   -10534.752   -11641.188    756.46727    9.1116434    9.1116434    9.1116434    46.474903 
 1332300    295.68747   -11425.994            0   -10545.488   -11666.261    758.87564    9.1213028    9.1213028    9.1213028     46.71144 
 1332400     298.2902   -11450.754            0   -10562.496   -19019.507    760.23414    9.1267423    9.1267423    9.1267423    39.161783 
 1332500    298.66901   -11471.547            0   -10582.161   -21609.624    759.92527    9.1255061    9.1255061    9.1255061    48.418602 
 1332600    299.50765   -11489.749            0   -10597.866    -22402.83    757.69671    9.1165769    9.1165769    9.1165769     38.47503 
 1332700    289.77143   -11469.834            0   -10606.944   -2199.2914    754.08358    9.1020628    9.1020628    9.1020628    43.290955 
 1332800     289.8727    -11475.49            0   -10612.298    14164.628    750.07736    9.0859153    9.0859153    9.0859153    44.021252 
 1332900    285.51906   -11462.968            0   -10612.741    8257.5795    746.62326     9.071947     9.071947     9.071947    38.284763 
 1333000    294.78801   -11489.773            0   -10611.945    20073.762    744.43775    9.0630866    9.0630866    9.0630866    49.757573 
 1333100    289.30262   -11469.777            0   -10608.283    42629.512    744.19042    9.0620828    9.0620828    9.0620828    44.046264 
 1333200    295.71786   -11483.392            0   -10602.795    23304.821    745.93108    9.0691427    9.0691427    9.0691427    41.451777 
 1333300    296.99442   -11480.354            0   -10595.956    3953.4009    748.94393    9.0813365    9.0813365    9.0813365    48.749543 
 1333400    281.25078   -11424.032            0   -10586.515    14584.419    752.58749    9.0960394    9.0960394    9.0960394      40.1497 
 1333500    288.96969   -11436.408            0   -10575.906   -6564.5139    756.42207    9.1114619    9.1114619    9.1114619     31.07516 
 1333600    293.78881   -11439.974            0   -10565.121   -23679.229     759.3535    9.1232169    9.1232169    9.1232169     33.28509 
 1333700    294.12531   -11429.784            0   -10553.929   -21563.124    760.72658    9.1287125    9.1287125    9.1287125     46.11094 
 1333800    288.50918   -11404.131            0       -10545   -23706.193    760.59239    9.1281757    9.1281757    9.1281757    37.993662 
 1333900    294.58314   -11415.847            0   -10538.628   -14314.636    758.79215    9.1209682    9.1209682    9.1209682    46.039336 
 1334000    304.76932   -11440.112            0   -10532.561   -4617.8721    756.17969    9.1104886    9.1104886    9.1104886    47.620631 
 1334100    298.84326    -11416.56            0   -10526.656    2746.8912    753.40381     9.099327     9.099327     9.099327    41.400184 
 1334200    306.39704   -11435.339            0    -10522.94    13202.319    750.84992    9.0890337    9.0890337    9.0890337    43.336651 
 1334300    301.33968   -11416.264            0   -10518.926    28978.026    748.85551    9.0809791    9.0809791    9.0809791     43.28664 
 1334400    299.28655   -11406.765            0    -10515.54    27468.487    747.96959    9.0773967    9.0773967    9.0773967    39.922862 
 1334500    301.55553   -11411.537            0   -10513.556    14882.336    748.33895    9.0788906    9.0788906    9.0788906     50.60164 
 1334600    296.29149   -11394.312            0   -10512.007     4613.754    749.75472    9.0846124    9.0846124    9.0846124    36.920219 
 1334700    302.89457   -11413.032            0   -10511.064   -1573.0978    751.83189    9.0929942    9.0929942    9.0929942    50.550454 
 1334800    297.52345   -11394.426            0   -10508.452   -1438.8131    753.66414    9.1003749    9.1003749    9.1003749    47.463637 
 1334900    285.72822    -11356.09            0    -10505.24   -11359.412    755.09025    9.1061113    9.1061113    9.1061113    46.462447 
 1335000    302.25457   -11403.152            0   -10503.089    -9975.361    755.82826     9.109077     9.109077     9.109077    49.839197 
Loop time of 2239.96 on 16 procs for 100000 steps with 1000 atoms

Performance: 3.857 ns/day, 6.222 hours/ns, 44.644 timesteps/s
94.5% CPU use with 16 MPI tasks x no OpenMP threads

MPI task timing breakdown:
Section |  min time  |  avg time  |  max time  |%varavg| %total
---------------------------------------------------------------
Pair    | 212.03     | 243.35     | 276.63     | 141.3 | 10.86
Neigh   | 78.662     | 85.242     | 96.177     |  60.4 |  3.81
Comm    | 56.474     | 100.72     | 138.59     | 273.5 |  4.50
Output  | 1214.6     | 1251.6     | 1795.9     | 397.3 | 55.87
Modify  | 13.952     | 558.23     | 595.21     | 594.8 | 24.92
Other   |            | 0.8605     |            |       |  0.04

Nlocal:    62.5 ave 68 max 55 min
Histogram: 1 2 0 1 1 2 3 2 3 1
Nghost:    1894.12 ave 1921 max 1873 min
Histogram: 4 0 0 6 2 0 0 0 1 3
Neighs:    0 ave 0 max 0 min
Histogram: 16 0 0 0 0 0 0 0 0 0
FullNghs:  19514.8 ave 21795 max 16686 min
Histogram: 1 2 0 1 2 3 0 4 2 1

Total # of neighbors = 312236
Ave neighs/atom = 312.236
Neighbor list builds = 100000
Dangerous builds not checked
Total wall time: 8:57:18
