LAMMPS (16 Mar 2018)
Reading data file ...
  orthogonal box = (-4.72827 -4.72827 -4.72827) to (4.72827 4.72827 4.72827)
  2 by 2 by 4 MPI processor grid
  reading atoms ...
  1000 atoms
Reading potential file /home/fs01/ajm529/lammps-16Mar18/potentials/sw_potentials/AG/eps2.23.sw with DATE: 2008-01-29
Neighbor list info ...
  update every 1 steps, delay 0 steps, check no
  max neighbors/atom: 2000, page size: 100000
  master list distance cutoff = 3.836
  ghost atom cutoff = 3.836
  binsize = 1.918, bins = 5 5 5
  1 neighbor lists, perpetual/occasional/extra = 1 0 0
  (1) pair sw, perpetual
      attributes: full, newton on
      pair build: full/bin/atomonly
      stencil: full/bin/3d
      bin: standard
Setting up Verlet run ...
  Unit style    : real
  Current step  : 0
  Time step     : 1
Per MPI rank memory allocation (min/avg/max) = 3.518 | 3.519 | 3.52 Mbytes
Step Temp E_pair E_mol TotEng Press Volume Lx Ly Lz S/CPU 
       0          300   -10077.418            0   -9184.0696   -22660.301     845.6629    9.4565435    9.4565435    9.4565435            0 
     100    330.62045   -10175.083            0   -9190.5517   -40797.891    843.70423     9.449237     9.449237     9.449237    54.529701 
     200    334.89388   -10202.885            0    -9205.628   -30223.055    838.06274    9.4281289    9.4281289    9.4281289     60.16641 
     300    328.59385   -10207.992            0   -9229.4956   -24033.276    829.72679    9.3967651    9.3967651    9.3967651    55.077984 
     400     335.6865   -10254.263            0   -9254.6461   -19362.175    819.77965    9.3590631    9.3590631    9.3590631    47.586421 
     500    325.67286   -10243.656            0   -9273.8579   -12321.356    809.87204    9.3212066    9.3212066    9.3212066    43.613076 
     600    335.90696   -10292.227            0   -9291.9536    8198.7604    800.93866     9.286807     9.286807     9.286807    55.188536 
     700    329.55084   -10291.727            0   -9310.3813    30609.181    794.03396    9.2600435    9.2600435    9.2600435    59.418596 
     800    331.50523   -10318.158            0   -9330.9923    12734.477    789.55716    9.2426078    9.2426078    9.2426078    37.187163 
     900    324.13603   -10317.528            0   -9352.3062    22038.564    786.85909    9.2320679    9.2320679    9.2320679    45.324815 
    1000    333.38114   -10368.044            0   -9375.2922    17014.138    785.75405    9.2277441    9.2277441    9.2277441    54.948466 
Loop time of 19.9161 on 16 procs for 1000 steps with 1000 atoms

Performance: 4.338 ns/day, 5.532 hours/ns, 50.211 timesteps/s
94.4% CPU use with 16 MPI tasks x no OpenMP threads

MPI task timing breakdown:
Section |  min time  |  avg time  |  max time  |%varavg| %total
---------------------------------------------------------------
Pair    | 1.7725     | 1.8621     | 1.9414     |   3.0 |  9.35
Neigh   | 0.72943    | 0.75118    | 0.77354    |   1.7 |  3.77
Comm    | 0.52521    | 0.62239    | 0.71749    |   6.5 |  3.13
Output  | 10.99      | 11.345     | 16.579     |  40.1 | 56.96
Modify  | 0.096983   | 5.3259     | 5.6799     |  58.5 | 26.74
Other   |            | 0.009615   |            |       |  0.05

Nlocal:    62.5 ave 70 max 57 min
Histogram: 2 2 0 5 2 2 0 2 0 1
Nghost:    1849.75 ave 1872 max 1822 min
Histogram: 2 1 2 1 1 1 1 2 1 4
Neighs:    0 ave 0 max 0 min
Histogram: 16 0 0 0 0 0 0 0 0 0
FullNghs:  18763.8 ave 21202 max 17129 min
Histogram: 3 1 0 5 3 1 0 2 0 1

Total # of neighbors = 300220
Ave neighs/atom = 300.22
Neighbor list builds = 1000
Dangerous builds not checked
Setting up Verlet run ...
  Unit style    : real
  Current step  : 1000
  Time step     : 1
Per MPI rank memory allocation (min/avg/max) = 3.52 | 4.31 | 4.579 Mbytes
Step Temp E_pair E_mol TotEng Press Volume Lx Ly Lz S/CPU 
    1000    333.38114   -10368.044            0   -9375.2922    17014.138    785.75405    9.2277441    9.2277441    9.2277441            0 
    1100    325.70157   -10367.358            0    -9397.474    12604.665    785.70388    9.2275477    9.2275477    9.2275477    45.347588 
    1200    327.33205   -10394.468            0   -9419.7291    9683.1928    786.43595    9.2304127    9.2304127    9.2304127    48.349785 
    1300      314.124   -10376.478            0   -9441.0705    10827.448    787.66002    9.2351992    9.2351992    9.2351992    56.294491 
    1400    306.55631   -10372.835            0   -9459.9631   -44.432534    789.24017    9.2413707    9.2413707    9.2413707    47.838004 
    1500    316.89215   -10423.025            0    -9479.374   -6266.0186    790.69679    9.2470525    9.2470525    9.2470525    58.585821 
    1600    317.34908   -10443.007            0   -9497.9956   -4994.9281    792.19884    9.2529042    9.2529042    9.2529042    58.209572 
    1700    313.23915   -10448.102            0   -9515.3293   -8610.6293    793.55063    9.2581642    9.2581642    9.2581642    51.278256 
    1800    300.40397   -10424.699            0   -9530.1469   -9003.1015    794.22791    9.2607974    9.2607974    9.2607974    66.564048 
    1900    312.14959   -10475.468            0   -9545.9396   -6957.5615    794.27421    9.2609773    9.2609773    9.2609773    54.239258 
    2000    306.21252   -10472.656            0   -9560.8071   -21976.949    793.52037    9.2580466    9.2580466    9.2580466    49.047274 
Loop time of 18.9001 on 16 procs for 1000 steps with 1000 atoms

Performance: 4.571 ns/day, 5.250 hours/ns, 52.910 timesteps/s
94.5% CPU use with 16 MPI tasks x no OpenMP threads

MPI task timing breakdown:
Section |  min time  |  avg time  |  max time  |%varavg| %total
---------------------------------------------------------------
Pair    | 1.8582     | 1.9563     | 2.0112     |   3.6 | 10.35
Neigh   | 0.71731    | 0.75948    | 0.78384    |   2.2 |  4.02
Comm    | 0.56087    | 0.63789    | 0.77807    |   8.4 |  3.38
Output  | 10.42      | 10.743     | 15.492     |  37.4 | 56.84
Modify  | 0.043975   | 4.794      | 5.1162     |  56.0 | 25.37
Other   |            | 0.00969    |            |       |  0.05

Nlocal:    62.5 ave 67 max 58 min
Histogram: 1 2 2 1 3 2 0 2 0 3
Nghost:    1841.44 ave 1862 max 1828 min
Histogram: 1 2 5 1 1 2 2 1 0 1
Neighs:    0 ave 0 max 0 min
Histogram: 16 0 0 0 0 0 0 0 0 0
FullNghs:  18608.2 ave 20359 max 17081 min
Histogram: 1 3 1 2 3 1 1 1 2 1

Total # of neighbors = 297732
Ave neighs/atom = 297.732
Neighbor list builds = 1000
Dangerous builds not checked
Setting up Verlet run ...
  Unit style    : real
  Current step  : 2000
  Time step     : 1
Per MPI rank memory allocation (min/avg/max) = 4.577 | 4.578 | 4.579 Mbytes
Step Temp E_pair E_mol TotEng Press Volume Lx Ly Lz S/CPU 
    2000    306.21252   -10472.656            0   -9560.8071   -21976.949    793.52037    9.2580466    9.2580466    9.2580466            0 
    2100    308.72806   -10492.669            0   -9573.3292   -6393.5362    791.73592    9.2511016    9.2511016    9.2511016    50.601638 
    2200    294.45436   -10463.387            0   -9586.5525    136.36232    789.35879    9.2418337    9.2418337    9.2418337    49.083085 
    2300    299.71632   -10491.638            0   -9599.1343   -349.01858    786.59748    9.2310446    9.2310446    9.2310446    50.276318 
    2400    299.30691   -10501.334            0   -9610.0495    9389.3006    784.07661    9.2211729    9.2211729    9.2211729    58.858914 
    2500    297.66089   -10506.824            0   -9620.4407    10586.436    782.10444    9.2134352    9.2134352    9.2134352    51.440306 
    2600     304.6131   -10536.963            0   -9629.8777    13124.056    780.63632    9.2076666    9.2076666    9.2076666    43.305579 
    2700    291.77691   -10505.253            0   -9636.3915   -609.80048    780.23036    9.2060702    9.2060702    9.2060702    71.031779 
    2800     296.5322   -10524.793            0   -9641.7704    5227.9084    780.10035    9.2055588    9.2055588    9.2055588    39.538517 
    2900    293.29853   -10520.286            0   -9646.8933    9179.2558     780.2994    9.2063417    9.2063417    9.2063417    49.392738 
    3000    292.53654   -10520.456            0   -9649.3325   -6557.4727    780.69702    9.2079052    9.2079052    9.2079052    53.271677 
Loop time of 19.7936 on 16 procs for 1000 steps with 1000 atoms

Performance: 4.365 ns/day, 5.498 hours/ns, 50.521 timesteps/s
94.5% CPU use with 16 MPI tasks x no OpenMP threads

MPI task timing breakdown:
Section |  min time  |  avg time  |  max time  |%varavg| %total
---------------------------------------------------------------
Pair    | 1.8568     | 1.9857     | 2.0978     |   4.7 | 10.03
Neigh   | 0.72678    | 0.76447    | 0.82117    |   2.4 |  3.86
Comm    | 0.50696    | 0.65235    | 0.81871    |  10.5 |  3.30
Output  | 10.743     | 11.097     | 16.33      |  40.6 | 56.06
Modify  | 0.049978   | 5.2843     | 5.6389     |  58.8 | 26.70
Other   |            | 0.009758   |            |       |  0.05

Nlocal:    62.5 ave 69 max 58 min
Histogram: 4 1 4 0 2 0 1 0 3 1
Nghost:    1869.56 ave 1889 max 1848 min
Histogram: 1 0 4 2 1 1 2 1 2 2
Neighs:    0 ave 0 max 0 min
Histogram: 16 0 0 0 0 0 0 0 0 0
FullNghs:  18913.1 ave 20932 max 17416 min
Histogram: 2 3 3 1 2 0 1 0 3 1

Total # of neighbors = 302610
Ave neighs/atom = 302.61
Neighbor list builds = 1000
Dangerous builds not checked
Setting up Verlet run ...
  Unit style    : real
  Current step  : 3000
  Time step     : 1
Per MPI rank memory allocation (min/avg/max) = 4.577 | 4.578 | 4.579 Mbytes
Step Temp E_pair E_mol TotEng Press Volume Lx Ly Lz S/CPU 
    3000    292.53654   -10520.456            0   -9649.3325   -6557.4727    780.69702    9.2079052    9.2079052    9.2079052            0 
    3100    291.58158   -10518.763            0   -9650.4828   -290.26544    781.24204    9.2100475    9.2100475    9.2100475    40.711618 
    3200    298.02437   -10539.409            0   -9651.9432   -10501.687    781.64204    9.2116191    9.2116191    9.2116191    53.549433 
    3300    294.25962    -10526.77            0   -9650.5153    2248.3555    781.50821    9.2110933    9.2110933    9.2110933    64.410646 
    3400    298.27803   -10535.608            0   -9647.3867    3413.7301    781.39165    9.2106353    9.2106353    9.2106353    38.831725 
    3500    293.33787   -10516.959            0   -9643.4491   -306.94985    781.23936    9.2100369    9.2100369    9.2100369    51.222576 
    3600     295.6649    -10518.12            0   -9637.6799    16179.512    781.25769     9.210109     9.210109     9.210109    51.784635 
    3700    292.50533   -10501.596            0   -9630.5646     4693.742    781.63196    9.2115795    9.2115795    9.2115795    57.041762 
    3800    298.70873   -10513.943            0   -9624.4392     11945.59    781.92551    9.2127325    9.2127325    9.2127325    45.405633 
    3900    303.18303   -10520.091            0   -9617.2636     8821.899    782.47883    9.2149051    9.2149051    9.2149051    44.622549 
    4000    304.10423   -10518.231            0   -9612.6603   -13076.276    783.00509    9.2169704    9.2169704    9.2169704     39.31114 
Loop time of 21.0752 on 16 procs for 1000 steps with 1000 atoms

Performance: 4.100 ns/day, 5.854 hours/ns, 47.449 timesteps/s
94.4% CPU use with 16 MPI tasks x no OpenMP threads

MPI task timing breakdown:
Section |  min time  |  avg time  |  max time  |%varavg| %total
---------------------------------------------------------------
Pair    | 1.8373     | 2.0044     | 2.1456     |   5.6 |  9.51
Neigh   | 0.73204    | 0.76598    | 0.83455    |   2.7 |  3.63
Comm    | 0.44174    | 0.65266    | 0.85551    |  12.4 |  3.10
Output  | 12.149     | 12.49      | 17.515     |  36.7 | 59.26
Modify  | 0.13828    | 5.1525     | 5.4977     |  57.0 | 24.45
Other   |            | 0.009788   |            |       |  0.05

Nlocal:    62.5 ave 69 max 56 min
Histogram: 2 0 1 2 2 3 3 2 0 1
Nghost:    1865.25 ave 1884 max 1852 min
Histogram: 2 3 1 4 0 2 1 0 1 2
Neighs:    0 ave 0 max 0 min
Histogram: 16 0 0 0 0 0 0 0 0 0
FullNghs:  18840.5 ave 20983 max 16826 min
Histogram: 2 0 2 1 3 2 3 2 0 1

Total # of neighbors = 301448
Ave neighs/atom = 301.448
Neighbor list builds = 1000
Dangerous builds not checked
Setting up Verlet run ...
  Unit style    : real
  Current step  : 4000
  Time step     : 1
Per MPI rank memory allocation (min/avg/max) = 4.577 | 4.578 | 4.579 Mbytes
Step Temp E_pair E_mol TotEng Press Volume Lx Ly Lz S/CPU 
    4000    304.10423   -10518.231            0   -9612.6603   -13076.276    783.00509    9.2169704    9.2169704    9.2169704            0 
    4100    294.08923   -10483.841            0   -9608.0933   -16331.346    783.34895    9.2183195    9.2183195    9.2183195    61.242908 
    4200    293.73925   -10477.593            0   -9602.8882   -2335.3159    783.42141    9.2186037    9.2186037    9.2186037    65.102952 
    4300    312.96625   -10531.839            0   -9599.8788    13618.837    783.52645    9.2190157    9.2190157    9.2190157    44.576859 
    4400    301.64202   -10493.086            0   -9594.8473    10980.008    783.77103    9.2199748    9.2199748    9.2199748    65.434476 
    4500    296.68466   -10475.543            0   -9592.0671   -1201.2534    784.22837    9.2217678    9.2217678    9.2217678    58.911836 
    4600    304.99492   -10498.813            0   -9590.5905   -14136.552    784.41924    9.2225159    9.2225159    9.2225159    44.037306 
    4700    297.77597    -10475.15            0   -9588.4239   -4520.8839    784.00018    9.2208733    9.2208733    9.2208733    60.579294 
    4800    294.07505   -10463.107            0   -9587.4015    6160.5519    783.50743    9.2189411    9.2189411    9.2189411    69.695712 
    4900    310.48463    -10511.19            0   -9586.6199    243.35171    783.16284    9.2175894    9.2175894    9.2175894    57.644789 
    5000    304.23416   -10492.107            0   -9586.1498    -2059.745     782.6392    9.2155345    9.2155345    9.2155345     51.52268 
Loop time of 17.6699 on 16 procs for 1000 steps with 1000 atoms

Performance: 4.890 ns/day, 4.908 hours/ns, 56.593 timesteps/s
94.6% CPU use with 16 MPI tasks x no OpenMP threads

MPI task timing breakdown:
Section |  min time  |  avg time  |  max time  |%varavg| %total
---------------------------------------------------------------
Pair    | 1.8359     | 1.9964     | 2.1448     |   5.3 | 11.30
Neigh   | 0.72219    | 0.76219    | 0.78947    |   2.0 |  4.31
Comm    | 0.48172    | 0.65247    | 0.85215    |  11.1 |  3.69
Output  | 9.5317     | 9.8283     | 14.195     |  36.0 | 55.62
Modify  | 0.052648   | 4.4208     | 4.7175     |  53.6 | 25.02
Other   |            | 0.009724   |            |       |  0.06

Nlocal:    62.5 ave 68 max 59 min
Histogram: 1 2 3 2 3 3 1 0 0 1
Nghost:    1870 ave 1878 max 1859 min
Histogram: 2 2 0 0 2 1 2 2 1 4
Neighs:    0 ave 0 max 0 min
Histogram: 16 0 0 0 0 0 0 0 0 0
FullNghs:  18853.1 ave 20497 max 17588 min
Histogram: 1 2 2 2 3 2 3 0 0 1

Total # of neighbors = 301650
Ave neighs/atom = 301.65
Neighbor list builds = 1000
Dangerous builds not checked
Setting up Verlet run ...
  Unit style    : real
  Current step  : 5000
  Time step     : 1
Per MPI rank memory allocation (min/avg/max) = 4.577 | 4.578 | 4.579 Mbytes
Step Temp E_pair E_mol TotEng Press Volume Lx Ly Lz S/CPU 
    5000    304.23416   -10492.107            0   -9586.1498    -2059.745     782.6392    9.2155345    9.2155345    9.2155345            0 
    5100    301.49551   -10482.967            0   -9585.1644    3611.3862    782.17852     9.213726     9.213726     9.213726    54.068126 
    5200    312.84093   -10519.129            0    -9587.542    3606.7083    782.16734    9.2136822    9.2136822    9.2136822    62.665313 
    5300    294.15991   -10466.467            0   -9590.5086   -5715.0041    782.60967    9.2154187    9.2154187    9.2154187    58.902872 
    5400    294.96024   -10472.961            0   -9594.6198    2273.9776    782.87619    9.2164647    9.2164647    9.2164647    64.305282 
    5500    305.02804   -10511.131            0   -9602.8096   -2824.4586    783.08078    9.2172674    9.2172674    9.2172674    61.326476 
    5600    291.21942   -10477.854            0   -9610.6528   -4863.6027    783.03164    9.2170746    9.2170746    9.2170746    40.185187 
    5700    296.34285   -10503.597            0   -9621.1388    1196.2186    782.73217    9.2158995    9.2158995    9.2158995    54.564423 
    5800    302.05585   -10531.607            0   -9632.1363    3353.6809    782.76283    9.2160198    9.2160198    9.2160198    59.471396 
    5900     304.3137   -10548.511            0   -9642.3167   -9175.6701    782.85259     9.216372     9.216372     9.216372    40.590434 
    6000    298.66861   -10541.489            0   -9652.1048    5722.5944    783.11402    9.2173978    9.2173978    9.2173978    60.006003 
Loop time of 18.4615 on 16 procs for 1000 steps with 1000 atoms

Performance: 4.680 ns/day, 5.128 hours/ns, 54.167 timesteps/s
94.5% CPU use with 16 MPI tasks x no OpenMP threads

MPI task timing breakdown:
Section |  min time  |  avg time  |  max time  |%varavg| %total
---------------------------------------------------------------
Pair    | 1.9269     | 2.0044     | 2.0921     |   3.8 | 10.86
Neigh   | 0.74275    | 0.76584    | 0.79156    |   1.6 |  4.15
Comm    | 0.52181    | 0.62075    | 0.71125    |   8.3 |  3.36
Output  | 9.9026     | 10.228     | 15.022     |  38.7 | 55.40
Modify  | 0.038838   | 4.8331     | 5.1583     |  56.3 | 26.18
Other   |            | 0.009712   |            |       |  0.05

Nlocal:    62.5 ave 73 max 57 min
Histogram: 3 2 3 3 0 2 2 0 0 1
Nghost:    1862.19 ave 1883 max 1824 min
Histogram: 1 0 0 1 2 2 3 3 1 3
Neighs:    0 ave 0 max 0 min
Histogram: 16 0 0 0 0 0 0 0 0 0
FullNghs:  18855 ave 22114 max 17091 min
Histogram: 3 1 4 3 0 2 2 0 0 1

Total # of neighbors = 301680
Ave neighs/atom = 301.68
Neighbor list builds = 1000
Dangerous builds not checked
Setting up Verlet run ...
  Unit style    : real
  Current step  : 6000
  Time step     : 1
Per MPI rank memory allocation (min/avg/max) = 4.577 | 4.578 | 4.579 Mbytes
Step Temp E_pair E_mol TotEng Press Volume Lx Ly Lz S/CPU 
    6000    298.66861   -10541.489            0   -9652.1048    5722.5944    783.11402    9.2173978    9.2173978    9.2173978            0 
    6100    284.31017   -10505.736            0   -9659.1093    6946.9486    783.74541    9.2198744    9.2198744    9.2198744    60.943763 
    6200    302.35332   -10564.627            0   -9664.2701    15414.055    784.60418    9.2232406    9.2232406    9.2232406    45.700214 
    6300    288.63239   -10525.092            0   -9665.5941    13696.802    786.06275    9.2289524    9.2289524    9.2289524    61.542086 
    6400    281.07398   -10502.008            0   -9665.0173   -2792.5007    788.08674    9.2368666    9.2368666    9.2368666      62.8034 
    6500     280.6179   -10497.427            0   -9661.7944   -6541.1585    790.02827    9.2444457    9.2444457    9.2444457    65.135099 
    6600    283.91006     -10503.2            0    -9657.764   -16281.287    791.14702    9.2488073    9.2488073    9.2488073    40.267619 
    6700    301.07294   -10548.756            0   -9652.2125   -4368.2457    790.62246    9.2467628    9.2467628    9.2467628    64.012555 
    6800    298.59402   -10534.299            0   -9645.1375   -6376.7832    788.81588    9.2397144    9.2397144    9.2397144    40.228385 
    6900    294.27542    -10514.36            0    -9638.058    5719.1896    786.06465    9.2289598    9.2289598    9.2289598    64.032305 
    7000    289.52924   -10492.053            0   -9629.8848    6563.2796    783.18604    9.2176804    9.2176804    9.2176804     53.01921 
Loop time of 18.5607 on 16 procs for 1000 steps with 1000 atoms

Performance: 4.655 ns/day, 5.156 hours/ns, 53.877 timesteps/s
94.5% CPU use with 16 MPI tasks x no OpenMP threads

MPI task timing breakdown:
Section |  min time  |  avg time  |  max time  |%varavg| %total
---------------------------------------------------------------
Pair    | 1.8816     | 1.9667     | 2.0265     |   2.4 | 10.60
Neigh   | 0.72768    | 0.7592     | 0.78843    |   1.8 |  4.09
Comm    | 0.55929    | 0.64847    | 0.7647     |   5.7 |  3.49
Output  | 9.7738     | 10.111     | 15.091     |  40.4 | 54.48
Modify  | 0.084876   | 5.0654     | 5.4028     |  57.1 | 27.29
Other   |            | 0.009725   |            |       |  0.05

Nlocal:    62.5 ave 69 max 57 min
Histogram: 2 2 2 1 2 2 1 1 1 2
Nghost:    1855.25 ave 1883 max 1830 min
Histogram: 3 0 3 2 2 0 1 0 1 4
Neighs:    0 ave 0 max 0 min
Histogram: 16 0 0 0 0 0 0 0 0 0
FullNghs:  18841.9 ave 21027 max 17007 min
Histogram: 1 2 3 1 2 1 3 1 1 1

Total # of neighbors = 301470
Ave neighs/atom = 301.47
Neighbor list builds = 1000
Dangerous builds not checked
Setting up Verlet run ...
  Unit style    : real
  Current step  : 7000
  Time step     : 1
Per MPI rank memory allocation (min/avg/max) = 4.577 | 4.578 | 4.579 Mbytes
Step Temp E_pair E_mol TotEng Press Volume Lx Ly Lz S/CPU 
    7000    289.52924   -10492.053            0   -9629.8848    6563.2796    783.18604    9.2176804    9.2176804    9.2176804            0 
    7100    298.39775   -10511.022            0   -9622.4444   -3492.8823    780.40964    9.2067753    9.2067753    9.2067753    44.789109 
    7200    291.37789   -10483.412            0    -9615.738    537.47039    777.96485    9.1971512    9.1971512    9.1971512    51.536518 
    7300    299.28107   -10502.342            0   -9611.1344    10184.374    776.00617    9.1894261    9.1894261    9.1894261    61.189648 
    7400    298.61308   -10497.424            0   -9608.2053    19361.555    774.31224    9.1827348    9.1827348    9.1827348    52.398172 
    7500    307.48837   -10520.956            0   -9605.3079    18026.871     773.6457    9.1800992    9.1800992    9.1800992    48.077188 
    7600    310.49408   -10527.738            0     -9603.14    10194.786    774.08091    9.1818202    9.1818202    9.1818202    47.311651 
    7700    301.91026   -10501.611            0   -9602.5735     6931.246    774.84677    9.1848473    9.1848473    9.1848473    48.506779 
    7800    300.58728   -10497.396            0   -9602.2983    3822.8001    775.84202    9.1887782    9.1887782    9.1887782    53.964771 
    7900    313.34235   -10537.311            0    -9604.231    11670.369     776.9841    9.1932847    9.1932847    9.1932847     57.67203 
    8000     298.2905    -10494.72            0   -9606.4617    9262.8026    778.44599    9.1990468    9.1990468    9.1990468    68.970888 
Loop time of 19.008 on 16 procs for 1000 steps with 1000 atoms

Performance: 4.545 ns/day, 5.280 hours/ns, 52.610 timesteps/s
94.5% CPU use with 16 MPI tasks x no OpenMP threads

MPI task timing breakdown:
Section |  min time  |  avg time  |  max time  |%varavg| %total
---------------------------------------------------------------
Pair    | 1.9276     | 2.0268     | 2.0907     |   3.2 | 10.66
Neigh   | 0.73579    | 0.762      | 0.79227    |   1.9 |  4.01
Comm    | 0.55366    | 0.64723    | 0.76879    |   7.3 |  3.41
Output  | 10.252     | 10.583     | 15.47      |  38.8 | 55.68
Modify  | 0.093808   | 4.9789     | 5.3098     |  56.5 | 26.19
Other   |            | 0.009877   |            |       |  0.05

Nlocal:    62.5 ave 67 max 56 min
Histogram: 1 1 0 2 1 1 4 2 2 2
Nghost:    1878.62 ave 1892 max 1862 min
Histogram: 3 0 0 2 0 2 3 2 2 2
Neighs:    0 ave 0 max 0 min
Histogram: 16 0 0 0 0 0 0 0 0 0
FullNghs:  18944.1 ave 20463 max 16914 min
Histogram: 1 1 0 2 2 1 3 4 1 1

Total # of neighbors = 303106
Ave neighs/atom = 303.106
Neighbor list builds = 1000
Dangerous builds not checked
Setting up Verlet run ...
  Unit style    : real
  Current step  : 8000
  Time step     : 1
Per MPI rank memory allocation (min/avg/max) = 4.577 | 4.578 | 4.579 Mbytes
Step Temp E_pair E_mol TotEng Press Volume Lx Ly Lz S/CPU 
    8000     298.2905    -10494.72            0   -9606.4617    9262.8026    778.44599    9.1990468    9.1990468    9.1990468            0 
    8100    301.65644   -10507.288            0   -9609.0063    4263.0838    779.96645    9.2050321    9.2050321    9.2050321     38.52334 
    8200    297.39077   -10497.345            0   -9611.7658   -3309.4504    781.51492    9.2111197    9.2111197    9.2111197    63.085581 
    8300    307.06098   -10530.935            0   -9616.5595   -20372.185    783.28529    9.2180697    9.2180697    9.2180697    66.363546 
    8400    293.75352   -10494.189            0   -9619.4408   -11966.634    784.80998     9.224047     9.224047     9.224047    46.101253 
    8500    298.64133    -10511.86            0   -9622.5575   -1552.4422    785.77831    9.2278391    9.2278391    9.2278391    39.188709 
    8600    286.16819   -10477.329            0   -9625.1689   -8444.2425    786.45665    9.2304937    9.2304937    9.2304937    56.546771 
    8700    285.73068   -10479.057            0   -9628.1997   -5309.4346    786.74857    9.2316356    9.2316356    9.2316356    53.349721 
    8800    299.46372   -10523.803            0    -9632.051   -6240.0848    786.77115     9.231724     9.231724     9.231724    68.965512 
    8900    297.20243   -10518.576            0   -9633.5583    4105.2664    786.48681    9.2306117    9.2306117    9.2306117    51.788607 
    9000    294.84694   -10513.716            0   -9635.7124    -10897.48    786.60936    9.2310911    9.2310911    9.2310911    56.048856 
Loop time of 19.2167 on 16 procs for 1000 steps with 1000 atoms

Performance: 4.496 ns/day, 5.338 hours/ns, 52.038 timesteps/s
94.5% CPU use with 16 MPI tasks x no OpenMP threads

MPI task timing breakdown:
Section |  min time  |  avg time  |  max time  |%varavg| %total
---------------------------------------------------------------
Pair    | 1.9105     | 1.9901     | 2.0443     |   3.0 | 10.36
Neigh   | 0.73564    | 0.76487    | 0.81167    |   2.1 |  3.98
Comm    | 0.52128    | 0.62202    | 0.72746    |   7.1 |  3.24
Output  | 10.731     | 11.05      | 15.755     |  36.5 | 57.50
Modify  | 0.075288   | 4.7799     | 5.0989     |  55.6 | 24.87
Other   |            | 0.009722   |            |       |  0.05

Nlocal:    62.5 ave 68 max 57 min
Histogram: 1 2 2 2 1 2 2 1 0 3
Nghost:    1853.44 ave 1867 max 1840 min
Histogram: 1 0 3 0 5 1 2 3 0 1
Neighs:    0 ave 0 max 0 min
Histogram: 16 0 0 0 0 0 0 0 0 0
FullNghs:  18750.4 ave 20456 max 17156 min
Histogram: 1 2 2 2 1 3 1 1 0 3

Total # of neighbors = 300006
Ave neighs/atom = 300.006
Neighbor list builds = 1000
Dangerous builds not checked
Setting up Verlet run ...
  Unit style    : real
  Current step  : 9000
  Time step     : 1
Per MPI rank memory allocation (min/avg/max) = 4.577 | 4.578 | 4.579 Mbytes
Step Temp E_pair E_mol TotEng Press Volume Lx Ly Lz S/CPU 
    9000    294.84694   -10513.716            0   -9635.7124    -10897.48    786.60936    9.2310911    9.2310911    9.2310911            0 
    9100    301.61377   -10535.405            0   -9637.2509   -3589.0263    786.48897    9.2306201    9.2306201    9.2306201    55.221405 
    9200    299.46655   -10530.645            0   -9638.8851    10782.039     786.1232     9.229189     9.229189     9.229189    55.394043 
    9300    293.97519   -10516.252            0   -9640.8438    3476.5606    786.38249    9.2302035    9.2302035    9.2302035    34.035394 
    9400    298.47946   -10531.796            0   -9642.9747    4024.8981    787.16361    9.2332587    9.2332587    9.2332587    55.878043 
    9500     295.0303   -10522.387            0   -9643.8375    -443.5136    788.05389    9.2367383    9.2367383    9.2367383    43.206002 
    9600    292.39552   -10515.301            0   -9644.5971    57.621481    789.06661    9.2406933    9.2406933    9.2406933    57.499854 
    9700    282.33282   -10483.826            0    -9643.087   -16896.315      790.179    9.2450336    9.2450336    9.2450336    49.667243 
    9800    293.43299   -10513.859            0   -9640.0657    218.26756    790.85812    9.2476814    9.2476814    9.2476814     49.47459 
    9900    295.76824    -10516.12            0   -9635.3726   -17353.637    791.63883    9.2507234    9.2507234    9.2507234    51.864389 
   10000    301.57541   -10528.246            0   -9630.2063   -11880.452    791.76702    9.2512227    9.2512227    9.2512227    67.058604 
Loop time of 19.8515 on 16 procs for 1000 steps with 1000 atoms

Performance: 4.352 ns/day, 5.514 hours/ns, 50.374 timesteps/s
94.4% CPU use with 16 MPI tasks x no OpenMP threads

MPI task timing breakdown:
Section |  min time  |  avg time  |  max time  |%varavg| %total
---------------------------------------------------------------
Pair    | 1.8087     | 1.9587     | 2.0861     |   5.0 |  9.87
Neigh   | 0.7332     | 0.75889    | 0.79358    |   1.8 |  3.82
Comm    | 0.46787    | 0.62937    | 0.79221    |  10.5 |  3.17
Output  | 11.149     | 11.482     | 16.384     |  37.4 | 57.84
Modify  | 0.11597    | 5.0131     | 5.3448     |  56.5 | 25.25
Other   |            | 0.009687   |            |       |  0.05

Nlocal:    62.5 ave 68 max 55 min
Histogram: 1 0 0 2 2 3 4 2 1 1
Nghost:    1843.5 ave 1865 max 1824 min
Histogram: 3 1 0 2 2 2 1 3 1 1
Neighs:    0 ave 0 max 0 min
Histogram: 16 0 0 0 0 0 0 0 0 0
FullNghs:  18646.1 ave 20345 max 16283 min
Histogram: 1 0 0 2 1 5 2 3 1 1

Total # of neighbors = 298338
Ave neighs/atom = 298.338
Neighbor list builds = 1000
Dangerous builds not checked
Setting up Verlet run ...
  Unit style    : real
  Current step  : 10000
  Time step     : 1
Per MPI rank memory allocation (min/avg/max) = 4.577 | 4.578 | 4.579 Mbytes
Step Temp E_pair E_mol TotEng Press Volume Lx Ly Lz S/CPU 
   10000    301.57541   -10528.246            0   -9630.2063   -11880.452    791.76702    9.2512227    9.2512227    9.2512227            0 
   10100    301.83823   -10519.391            0   -9620.5684   -5615.5682    790.99072    9.2481982    9.2481982    9.2481982    59.864179 
   10200     303.7888   -10516.034            0   -9611.4024    6297.2559    789.37318    9.2418899    9.2418899    9.2418899    53.208805 
   10300    293.74342   -10475.938            0   -9601.2199    13878.047    787.61872    9.2350378    9.2350378    9.2350378    61.264811 
   10400    301.37377   -10489.983            0   -9592.5434    7711.1523    786.44311    9.2304407    9.2304407    9.2304407    53.388033 
   10500    300.49343   -10479.752            0    -9584.934    383.72911    785.90457    9.2283333    9.2283333    9.2283333    47.892554 
   10600    307.66225   -10495.066            0   -9578.9007    7630.6846    785.69126    9.2274983    9.2274983    9.2274983    63.891058 
   10700    309.84086   -10497.133            0     -9574.48    1464.7435    785.74752    9.2277185    9.2277185    9.2277185    56.429179 
   10800     309.2518   -10491.585            0   -9570.6858    1155.8865    785.89325     9.228289     9.228289     9.228289    40.928261 
   10900    309.73749   -10491.109            0   -9568.7633   -7128.2699    785.97156    9.2285955    9.2285955    9.2285955    53.658144 
   11000     294.9994   -10445.565            0   -9567.1069   -4376.6546    785.67234    9.2274242    9.2274242    9.2274242    54.904153 
Loop time of 18.6088 on 16 procs for 1000 steps with 1000 atoms

Performance: 4.643 ns/day, 5.169 hours/ns, 53.738 timesteps/s
94.5% CPU use with 16 MPI tasks x no OpenMP threads

MPI task timing breakdown:
Section |  min time  |  avg time  |  max time  |%varavg| %total
---------------------------------------------------------------
Pair    | 1.8361     | 1.9668     | 2.065      |   3.7 | 10.57
Neigh   | 0.72992    | 0.75892    | 0.78421    |   1.5 |  4.08
Comm    | 0.50982    | 0.63345    | 0.7927     |   7.9 |  3.40
Output  | 10.183     | 10.501     | 15.193     |  37.4 | 56.43
Modify  | 0.046489   | 4.739      | 5.0574     |  55.7 | 25.47
Other   |            | 0.009678   |            |       |  0.05

Nlocal:    62.5 ave 65 max 58 min
Histogram: 1 2 2 0 0 2 0 2 1 6
Nghost:    1854.75 ave 1872 max 1841 min
Histogram: 3 1 0 3 4 1 0 0 3 1
Neighs:    0 ave 0 max 0 min
Histogram: 16 0 0 0 0 0 0 0 0 0
FullNghs:  18779.4 ave 19872 max 17347 min
Histogram: 2 1 2 0 2 1 1 1 4 2

Total # of neighbors = 300470
Ave neighs/atom = 300.47
Neighbor list builds = 1000
Dangerous builds not checked
Setting up Verlet run ...
  Unit style    : real
  Current step  : 11000
  Time step     : 1
Per MPI rank memory allocation (min/avg/max) = 4.577 | 4.578 | 4.579 Mbytes
Step Temp E_pair E_mol TotEng Press Volume Lx Ly Lz S/CPU 
   11000     294.9994   -10445.565            0   -9567.1069   -4376.6546    785.67234    9.2274242    9.2274242    9.2274242            0 
   11100    302.78235    -10469.89            0    -9568.256   -1374.5969    784.90458    9.2244176    9.2244176    9.2244176    53.274433 
   11200    308.30692    -10487.34            0   -9569.2546   -1271.2626     783.7548    9.2199112    9.2199112    9.2199112    63.910867 
   11300    304.32839   -10477.406            0   -9571.1684    27071.921    782.47995    9.2149095    9.2149095    9.2149095    56.894796 
   11400    308.64953   -10494.172            0   -9575.0667   -4246.7832      781.655      9.21167      9.21167      9.21167    49.941082 
   11500    304.96116   -10489.921            0   -9581.7989    7509.2493    780.81743    9.2083786    9.2083786    9.2083786     51.81724 
   11600    296.89396   -10475.877            0   -9591.7771    11856.291    780.56374    9.2073812    9.2073812    9.2073812    63.137332 
   11700    302.41682   -10507.204            0   -9606.6583    4646.1805    780.75278    9.2081244    9.2081244    9.2081244    60.455426 
   11800    302.59182   -10523.306            0   -9622.2396    10782.942    781.04388    9.2092687    9.2092687    9.2092687     39.51391 
   11900    298.63046   -10527.444            0   -9638.1739    11900.526     781.7044     9.211864     9.211864     9.211864    48.557687 
   12000    286.03625   -10499.155            0   -9647.3875   -9203.8857    783.04491    9.2171267    9.2171267    9.2171267    62.296382 
Loop time of 18.565 on 16 procs for 1000 steps with 1000 atoms

Performance: 4.654 ns/day, 5.157 hours/ns, 53.865 timesteps/s
94.5% CPU use with 16 MPI tasks x no OpenMP threads

MPI task timing breakdown:
Section |  min time  |  avg time  |  max time  |%varavg| %total
---------------------------------------------------------------
Pair    | 1.9099     | 2.0004     | 2.1233     |   4.0 | 10.78
Neigh   | 0.73574    | 0.76172    | 0.78935    |   1.7 |  4.10
Comm    | 0.51083    | 0.65983    | 0.77746    |   8.7 |  3.55
Output  | 9.4844     | 9.8366     | 15.037     |  42.8 | 52.98
Modify  | 0.10074    | 5.2966     | 5.6477     |  58.3 | 28.53
Other   |            | 0.009722   |            |       |  0.05

Nlocal:    62.5 ave 68 max 57 min
Histogram: 1 1 1 4 1 3 1 1 2 1
Nghost:    1853.12 ave 1875 max 1830 min
Histogram: 1 1 1 2 1 4 3 0 2 1
Neighs:    0 ave 0 max 0 min
Histogram: 16 0 0 0 0 0 0 0 0 0
FullNghs:  18834.4 ave 20565 max 17266 min
Histogram: 1 1 2 3 1 4 1 0 2 1

Total # of neighbors = 301350
Ave neighs/atom = 301.35
Neighbor list builds = 1000
Dangerous builds not checked
Setting up Verlet run ...
  Unit style    : real
  Current step  : 12000
  Time step     : 1
Per MPI rank memory allocation (min/avg/max) = 4.577 | 4.579 | 4.58 Mbytes
Step Temp E_pair E_mol TotEng Press Volume Lx Ly Lz S/CPU 
   12000    286.03625   -10499.155            0   -9647.3875   -9203.8857    783.04491    9.2171267    9.2171267    9.2171267            0 
   12100    291.63424   -10523.448            0    -9655.011   -5824.0561    784.38352    9.2223759    9.2223759    9.2223759    70.433844 
   12200    285.56544   -10508.092            0   -9657.7264   -8975.5599    785.30419    9.2259827    9.2259827    9.2259827    55.301204 
   12300    286.79216   -10513.194            0   -9659.1755   -9803.3616    785.36673    9.2262277    9.2262277    9.2262277    53.853528 
   12400    290.23413   -10521.618            0   -9657.3504   -15328.396    784.74317    9.2237852    9.2237852    9.2237852    59.327315 
   12500    277.12587   -10478.265            0    -9653.032    -22470.44    783.25071    9.2179341    9.2179341    9.2179341    54.177733 
   12600    295.01301   -10527.631            0   -9649.1327    3489.3444    780.60716    9.2075519    9.2075519    9.2075519    57.793827 
   12700    302.05796   -10543.331            0   -9643.8537   -263.50787    777.80083    9.1965048    9.1965048    9.1965048    36.021083 
   12800    306.45017   -10550.683            0   -9638.1264    11305.473    774.98463     9.185392     9.185392     9.185392    60.366051 
   12900    307.25471   -10545.614            0   -9630.6617    15333.612    772.42311    9.1752608    9.1752608    9.1752608    57.605122 
   13000    295.14429   -10503.448            0   -9624.5589    22400.168    771.17927    9.1703332    9.1703332    9.1703332     44.56237 
Loop time of 18.7593 on 16 procs for 1000 steps with 1000 atoms

Performance: 4.606 ns/day, 5.211 hours/ns, 53.307 timesteps/s
94.5% CPU use with 16 MPI tasks x no OpenMP threads

MPI task timing breakdown:
Section |  min time  |  avg time  |  max time  |%varavg| %total
---------------------------------------------------------------
Pair    | 1.8741     | 2.0035     | 2.1179     |   4.7 | 10.68
Neigh   | 0.72844    | 0.76324    | 0.82236    |   2.5 |  4.07
Comm    | 0.48625    | 0.65917    | 0.82121    |  10.6 |  3.51
Output  | 9.7632     | 10.111     | 15.253     |  41.8 | 53.90
Modify  | 0.077475   | 5.2122     | 5.5594     |  58.1 | 27.78
Other   |            | 0.0097     |            |       |  0.05

Nlocal:    62.5 ave 68 max 59 min
Histogram: 2 2 2 3 3 1 0 1 1 1
Nghost:    1874.31 ave 1885 max 1860 min
Histogram: 1 1 1 0 3 1 3 2 3 1
Neighs:    0 ave 0 max 0 min
Histogram: 16 0 0 0 0 0 0 0 0 0
FullNghs:  19145.2 ave 20873 max 17999 min
Histogram: 2 3 1 3 3 1 0 1 0 2

Total # of neighbors = 306324
Ave neighs/atom = 306.324
Neighbor list builds = 1000
Dangerous builds not checked
Setting up Verlet run ...
  Unit style    : real
  Current step  : 13000
  Time step     : 1
Per MPI rank memory allocation (min/avg/max) = 4.577 | 4.579 | 4.58 Mbytes
Step Temp E_pair E_mol TotEng Press Volume Lx Ly Lz S/CPU 
   13000    295.14429   -10503.448            0   -9624.5589    22400.168    771.17927    9.1703332    9.1703332    9.1703332            0 
   13100    299.00348   -10510.915            0   -9620.5336    18862.743    771.23241    9.1705438    9.1705438    9.1705438    49.636121 
   13200    293.92463   -10492.212            0   -9616.9549    20936.797    772.73768    9.1765062    9.1765062    9.1765062    62.795215 
   13300    305.03967   -10523.726            0   -9615.3696     5066.287    775.74691    9.1884026    9.1884026    9.1884026    53.687237 
   13400     309.4082   -10536.193            0   -9614.8284   -3410.6508    779.90515    9.2047909    9.2047909    9.2047909    41.292072 
   13500    294.23674   -10488.215            0   -9612.0283   -2532.4327    784.40658    9.2224663    9.2224663    9.2224663    55.915422 
   13600    300.45649   -10505.981            0   -9611.2728   -20793.184    788.91426    9.2400985    9.2400985    9.2400985    58.898575 
   13700    292.43544   -10478.795            0   -9607.9727   -23016.992    792.91452    9.2556898    9.2556898    9.2556898    56.504307 
   13800    292.11688   -10474.548            0   -9604.6735   -7339.2512    795.58778    9.2660798    9.2660798    9.2660798    46.077156 
   13900    294.56315   -10474.402            0   -9597.2437   -12496.471    797.12676    9.2720507    9.2720507    9.2720507    70.839311 
   14000     295.6046   -10464.775            0   -9584.5147    -17675.78    797.81585    9.2747217    9.2747217    9.2747217    49.043998 
Loop time of 18.7685 on 16 procs for 1000 steps with 1000 atoms

Performance: 4.603 ns/day, 5.213 hours/ns, 53.281 timesteps/s
94.5% CPU use with 16 MPI tasks x no OpenMP threads

MPI task timing breakdown:
Section |  min time  |  avg time  |  max time  |%varavg| %total
---------------------------------------------------------------
Pair    | 1.8348     | 1.9902     | 2.1028     |   5.0 | 10.60
Neigh   | 0.71418    | 0.76291    | 0.78906    |   2.2 |  4.06
Comm    | 0.51314    | 0.66024    | 0.86565    |  10.8 |  3.52
Output  | 9.9753     | 10.313     | 15.294     |  40.1 | 54.95
Modify  | 0.059448   | 5.0323     | 5.3693     |  57.2 | 26.81
Other   |            | 0.009726   |            |       |  0.05

Nlocal:    62.5 ave 66 max 58 min
Histogram: 2 0 2 2 0 2 2 1 2 3
Nghost:    1843.25 ave 1863 max 1826 min
Histogram: 1 1 2 4 1 2 2 1 1 1
Neighs:    0 ave 0 max 0 min
Histogram: 16 0 0 0 0 0 0 0 0 0
FullNghs:  18488.4 ave 19553 max 16877 min
Histogram: 1 1 0 2 3 1 2 1 1 4

Total # of neighbors = 295814
Ave neighs/atom = 295.814
Neighbor list builds = 1000
Dangerous builds not checked
Setting up Verlet run ...
  Unit style    : real
  Current step  : 14000
  Time step     : 1
Per MPI rank memory allocation (min/avg/max) = 4.577 | 4.579 | 4.58 Mbytes
Step Temp E_pair E_mol TotEng Press Volume Lx Ly Lz S/CPU 
   14000     295.6046   -10464.775            0   -9584.5147    -17675.78    797.81585    9.2747217    9.2747217    9.2747217            0 
   14100    292.00378   -10436.702            0   -9567.1648   -27726.788     797.5913    9.2738515    9.2738515    9.2738515    59.741315 
   14200    301.49614   -10446.396            0   -9548.5923   -9594.8709    796.41759    9.2693002    9.2693002    9.2693002     54.06816 
   14300    298.48426   -10422.093            0   -9533.2582   -8944.9941    794.78437    9.2629597    9.2629597    9.2629597    50.534368 
   14400    304.26537   -10430.284            0   -9524.2333   -277.22576    793.00833    9.2560548    9.2560548    9.2560548    60.478983 
   14500    299.62532   -10409.792            0   -9517.5593    5929.8907    791.49849    9.2501767    9.2501767    9.2501767    63.437678 
   14600    303.10862   -10417.906            0   -9515.3004   -17965.272    790.23051    9.2452345    9.2452345    9.2452345    46.569157 
   14700    315.64253   -10455.183            0   -9515.2531      9485.72    788.77136    9.2395406    9.2395406    9.2395406    65.522916 
   14800    314.02917   -10451.914            0   -9516.7884    8319.7584    787.80057    9.2357485    9.2357485    9.2357485    67.807793 
   14900    307.57484   -10436.365            0   -9520.4596    13191.219    787.35082    9.2339906    9.2339906    9.2339906    43.741311 
   15000    317.40455   -10472.565            0   -9527.3885    6936.6157    787.26052    9.2336376    9.2336376    9.2336376     40.56366 
Loop time of 18.6319 on 16 procs for 1000 steps with 1000 atoms

Performance: 4.637 ns/day, 5.176 hours/ns, 53.671 timesteps/s
94.5% CPU use with 16 MPI tasks x no OpenMP threads

MPI task timing breakdown:
Section |  min time  |  avg time  |  max time  |%varavg| %total
---------------------------------------------------------------
Pair    | 1.8686     | 1.9432     | 2.0719     |   4.9 | 10.43
Neigh   | 0.72808    | 0.75431    | 0.78631    |   2.2 |  4.05
Comm    | 0.50462    | 0.66326    | 0.76074    |  10.4 |  3.56
Output  | 10.51      | 10.808     | 15.188     |  34.4 | 58.01
Modify  | 0.072736   | 4.4533     | 4.7512     |  53.6 | 23.90
Other   |            | 0.00966    |            |       |  0.05

Nlocal:    62.5 ave 68 max 56 min
Histogram: 2 0 0 3 0 3 3 4 0 1
Nghost:    1840.5 ave 1854 max 1832 min
Histogram: 3 1 3 2 2 1 1 1 1 1
Neighs:    0 ave 0 max 0 min
Histogram: 16 0 0 0 0 0 0 0 0 0
FullNghs:  18743.8 ave 20547 max 16907 min
Histogram: 2 0 1 2 2 2 4 2 0 1

Total # of neighbors = 299900
Ave neighs/atom = 299.9
Neighbor list builds = 1000
Dangerous builds not checked
Setting up Verlet run ...
  Unit style    : real
  Current step  : 15000
  Time step     : 1
Per MPI rank memory allocation (min/avg/max) = 4.577 | 4.579 | 4.58 Mbytes
Step Temp E_pair E_mol TotEng Press Volume Lx Ly Lz S/CPU 
   15000    317.40455   -10472.565            0   -9527.3885    6936.6157    787.26052    9.2336376    9.2336376    9.2336376            0 
   15100    314.70283   -10473.848            0   -9536.7166    5183.0848    787.21611     9.233464     9.233464     9.233464    61.903551 
   15200    297.64194   -10432.056            0   -9545.7287   -10933.265     787.0597    9.2328524    9.2328524    9.2328524    69.398689 
   15300    294.97175   -10433.947            0   -9555.5713    7387.3552    786.49005    9.2306243    9.2306243    9.2306243    36.995449 
   15400    307.75624   -10482.496            0   -9566.0501    8372.2763    786.08416    9.2290362    9.2290362    9.2290362    62.811423 
   15500    298.09261   -10462.032            0   -9574.3628   -945.91336    786.13415    9.2292318    9.2292318    9.2292318    63.505999 
   15600     300.5294   -10476.068            0   -9581.1432   -3929.9894    786.16075    9.2293359    9.2293359    9.2293359    31.823874 
   15700    307.42226   -10503.804            0   -9588.3533   -3389.5901     785.7662    9.2277917    9.2277917    9.2277917    55.993551 
   15800    305.36487   -10502.804            0   -9593.4793     -7132.22    784.80986    9.2240465    9.2240465    9.2240465    69.040673 
   15900    305.32258   -10508.821            0    -9599.622   -302.17626    783.61446    9.2193608    9.2193608    9.2193608     30.09586 
   16000    311.31417   -10531.777            0   -9604.7366      6066.81    782.23554    9.2139499    9.2139499    9.2139499    60.246438 
Loop time of 20.2853 on 16 procs for 1000 steps with 1000 atoms

Performance: 4.259 ns/day, 5.635 hours/ns, 49.297 timesteps/s
94.4% CPU use with 16 MPI tasks x no OpenMP threads

MPI task timing breakdown:
Section |  min time  |  avg time  |  max time  |%varavg| %total
---------------------------------------------------------------
Pair    | 1.8922     | 1.9817     | 2.0632     |   3.7 |  9.77
Neigh   | 0.74183    | 0.7642     | 0.78781    |   1.7 |  3.77
Comm    | 0.53367    | 0.63166    | 0.73153    |   8.0 |  3.11
Output  | 12.054     | 12.356     | 16.809     |  32.7 | 60.91
Modify  | 0.088297   | 4.5417     | 4.8441     |  54.0 | 22.39
Other   |            | 0.00968    |            |       |  0.05

Nlocal:    62.5 ave 69 max 57 min
Histogram: 2 0 4 1 2 3 1 0 1 2
Nghost:    1849.19 ave 1871 max 1831 min
Histogram: 2 1 1 3 2 1 3 1 1 1
Neighs:    0 ave 0 max 0 min
Histogram: 16 0 0 0 0 0 0 0 0 0
FullNghs:  18878.1 ave 20906 max 17152 min
Histogram: 2 1 3 0 4 2 0 1 1 2

Total # of neighbors = 302050
Ave neighs/atom = 302.05
Neighbor list builds = 1000
Dangerous builds not checked
Setting up Verlet run ...
  Unit style    : real
  Current step  : 16000
  Time step     : 1
Per MPI rank memory allocation (min/avg/max) = 4.577 | 4.579 | 4.58 Mbytes
Step Temp E_pair E_mol TotEng Press Volume Lx Ly Lz S/CPU 
   16000    311.31417   -10531.777            0   -9604.7366      6066.81    782.23554    9.2139499    9.2139499    9.2139499            0 
   16100    293.06644   -10480.544            0   -9607.8425   -3968.6902    780.83142    9.2084336    9.2084336    9.2084336    66.157949 
   16200    299.09182   -10502.526            0   -9611.8816   -775.53786    779.46765    9.2030694    9.2030694    9.2030694    38.113826 
   16300    294.81607   -10494.128            0   -9616.2165     4681.092     778.2729    9.1983649    9.1983649    9.1983649    26.571427 
   16400    303.51804    -10523.05            0   -9619.2252    9925.0382    777.29864    9.1945251    9.1945251    9.1945251    29.576505 
   16500    297.05374    -10504.98            0   -9620.4042    10917.772    776.90535    9.1929741    9.1929741    9.1929741    59.709553 
   16600    296.35814   -10504.018            0    -9621.514    9220.2927     777.0944    9.1937197    9.1937197    9.1937197    68.597507 
   16700    290.78712   -10487.849            0   -9621.9348    8832.4314    778.00613    9.1973138    9.1973138    9.1973138    17.469567 
   16800    302.40118   -10523.816            0   -9623.3168   -2240.3872    779.48941    9.2031551    9.2031551    9.2031551    58.664311 
   16900    300.60658   -10519.347            0   -9624.1919   -5220.7402    781.53701    9.2112065    9.2112065    9.2112065    53.816416 
   17000    300.03101   -10519.084            0   -9625.6427   -16642.286    783.84569    9.2202676    9.2202676    9.2202676    69.952731 
Loop time of 25.1289 on 16 procs for 1000 steps with 1000 atoms

Performance: 3.438 ns/day, 6.980 hours/ns, 39.795 timesteps/s
94.3% CPU use with 16 MPI tasks x no OpenMP threads

MPI task timing breakdown:
Section |  min time  |  avg time  |  max time  |%varavg| %total
---------------------------------------------------------------
Pair    | 1.9434     | 2.0221     | 2.0988     |   3.3 |  8.05
Neigh   | 0.74315    | 0.76787    | 0.7942     |   1.6 |  3.06
Comm    | 0.53019    | 0.64321    | 0.73779    |   7.3 |  2.56
Output  | 15.586     | 15.968     | 21.603     |  36.4 | 63.54
Modify  | 0.091728   | 5.7183     | 6.0992     |  60.8 | 22.76
Other   |            | 0.009875   |            |       |  0.04

Nlocal:    62.5 ave 70 max 57 min
Histogram: 2 2 3 3 0 0 4 0 0 2
Nghost:    1861.94 ave 1875 max 1849 min
Histogram: 2 0 2 2 3 1 1 2 2 1
Neighs:    0 ave 0 max 0 min
Histogram: 16 0 0 0 0 0 0 0 0 0
FullNghs:  18810.1 ave 21140 max 16996 min
Histogram: 1 3 4 0 2 0 4 0 0 2

Total # of neighbors = 300962
Ave neighs/atom = 300.962
Neighbor list builds = 1000
Dangerous builds not checked
Setting up Verlet run ...
  Unit style    : real
  Current step  : 17000
  Time step     : 1
Per MPI rank memory allocation (min/avg/max) = 4.577 | 4.579 | 4.58 Mbytes
Step Temp E_pair E_mol TotEng Press Volume Lx Ly Lz S/CPU 
   17000    300.03101   -10519.084            0   -9625.6427   -16642.286    783.84569    9.2202676    9.2202676    9.2202676            0 
   17100     300.3896   -10522.225            0    -9627.716    5938.5187     785.9593    9.2285475    9.2285475    9.2285475    56.063581 
   17200    295.53953   -10509.064            0   -9628.9979    1293.9787    788.13204    9.2370436    9.2370436    9.2370436     33.43478 
   17300    308.61081   -10551.659            0   -9632.6688   -17.100741     790.0911    9.2446908    9.2446908    9.2446908    63.511975 
   17400    287.31872    -10490.73            0   -9635.1437   -11016.328    791.66158     9.250812     9.250812     9.250812     53.53259 
   17500    287.15207   -10496.158            0   -9641.0679   -1076.6988    792.19154    9.2528758    9.2528758    9.2528758    23.964166 
   17600    295.05272   -10526.005            0   -9647.3888    -8509.092    792.30324    9.2533107    9.2533107    9.2533107    60.656264 
   17700    279.58227   -10485.047            0   -9652.4992   -6442.5026    792.11422    9.2525748    9.2525748    9.2525748    57.271284 
   17800    286.72664   -10510.671            0   -9656.8476   -1949.3477    791.83869    9.2515018    9.2515018    9.2515018    47.689479 
   17900    297.17159   -10543.907            0   -9658.9809   -2706.3334    791.42558    9.2498927    9.2498927    9.2498927    59.913964 
   18000     279.2995   -10490.059            0   -9658.3527   -9716.2697    791.10181    9.2486312    9.2486312    9.2486312    72.995899 
Loop time of 20.9207 on 16 procs for 1000 steps with 1000 atoms

Performance: 4.130 ns/day, 5.811 hours/ns, 47.800 timesteps/s
94.4% CPU use with 16 MPI tasks x no OpenMP threads

MPI task timing breakdown:
Section |  min time  |  avg time  |  max time  |%varavg| %total
---------------------------------------------------------------
Pair    | 1.8575     | 1.9478     | 2.0337     |   3.4 |  9.31
Neigh   | 0.73245    | 0.75878    | 0.77773    |   1.7 |  3.63
Comm    | 0.52639    | 0.62413    | 0.74135    |   7.6 |  2.98
Output  | 11.096     | 11.503     | 17.534     |  45.9 | 54.99
Modify  | 0.045466   | 6.077      | 6.4843     |  63.2 | 29.05
Other   |            | 0.009616   |            |       |  0.05

Nlocal:    62.5 ave 66 max 58 min
Histogram: 1 1 1 2 0 4 1 2 2 2
Nghost:    1846.19 ave 1863 max 1832 min
Histogram: 4 0 1 2 1 1 2 4 0 1
Neighs:    0 ave 0 max 0 min
Histogram: 16 0 0 0 0 0 0 0 0 0
FullNghs:  18634.5 ave 19760 max 17262 min
Histogram: 2 0 1 1 4 1 2 1 2 2

Total # of neighbors = 298152
Ave neighs/atom = 298.152
Neighbor list builds = 1000
Dangerous builds not checked
Setting up Verlet run ...
  Unit style    : real
  Current step  : 18000
  Time step     : 1
Per MPI rank memory allocation (min/avg/max) = 4.577 | 4.579 | 4.58 Mbytes
Step Temp E_pair E_mol TotEng Press Volume Lx Ly Lz S/CPU 
   18000     279.2995   -10490.059            0   -9658.3527   -9716.2697    791.10181    9.2486312    9.2486312    9.2486312            0 
   18100     279.7727   -10488.764            0   -9655.6487   -11315.525    790.12366    9.2448178    9.2448178    9.2448178    63.801244 
   18200    285.18647   -10500.296            0   -9651.0592   -5131.6009    788.57335    9.2387674    9.2387674    9.2387674    56.231981 
   18300    286.88839   -10498.049            0    -9643.744    1496.8024    787.01473    9.2326765    9.2326765    9.2326765    68.272329 
   18400    294.71015   -10512.119            0   -9634.5227    10361.063    785.36158    9.2262075    9.2262075    9.2262075    52.238496 
   18500    295.88291   -10504.372            0   -9623.2835   -4852.2578    783.86821    9.2203559    9.2203559    9.2203559    50.875071 
   18600    297.33694   -10498.065            0    -9612.646    108.83549    782.56273    9.2152344    9.2152344    9.2152344    65.251614 
   18700    304.38135    -10508.72            0   -9602.3245   -758.12108    781.65436    9.2116675    9.2116675    9.2116675      60.6185 
   18800    300.86758   -10489.175            0    -9593.243   -983.10116    780.91474    9.2087611    9.2087611    9.2087611     52.88416 
   18900    296.76087   -10469.293            0   -9585.5897    5451.6435    780.54769    9.2073181    9.2073181    9.2073181    61.705635 
   19000    309.04477   -10500.386            0   -9580.1032    255.18354     780.8245    9.2084064    9.2084064    9.2084064    56.725277 
Loop time of 17.147 on 16 procs for 1000 steps with 1000 atoms

Performance: 5.039 ns/day, 4.763 hours/ns, 58.319 timesteps/s
94.6% CPU use with 16 MPI tasks x no OpenMP threads

MPI task timing breakdown:
Section |  min time  |  avg time  |  max time  |%varavg| %total
---------------------------------------------------------------
Pair    | 1.8611     | 1.9869     | 2.0683     |   4.1 | 11.59
Neigh   | 0.72764    | 0.76622    | 0.79129    |   2.0 |  4.47
Comm    | 0.54113    | 0.63231    | 0.79716    |   9.0 |  3.69
Output  | 9.2493     | 9.5297     | 13.653     |  34.5 | 55.58
Modify  | 0.10051    | 4.2222     | 4.5025     |  51.8 | 24.62
Other   |            | 0.009691   |            |       |  0.06

Nlocal:    62.5 ave 67 max 56 min
Histogram: 1 0 1 2 2 1 3 1 3 2
Nghost:    1851.56 ave 1863 max 1831 min
Histogram: 1 1 0 1 0 3 3 1 4 2
Neighs:    0 ave 0 max 0 min
Histogram: 16 0 0 0 0 0 0 0 0 0
FullNghs:  18904.6 ave 20417 max 16805 min
Histogram: 1 0 1 2 2 1 3 3 2 1

Total # of neighbors = 302474
Ave neighs/atom = 302.474
Neighbor list builds = 1000
Dangerous builds not checked
Setting up Verlet run ...
  Unit style    : real
  Current step  : 19000
  Time step     : 1
Per MPI rank memory allocation (min/avg/max) = 4.577 | 4.579 | 4.58 Mbytes
Step Temp E_pair E_mol TotEng Press Volume Lx Ly Lz S/CPU 
   19000    309.04477   -10500.386            0   -9580.1032    255.18354     780.8245    9.2084064    9.2084064    9.2084064            0 
   19100    309.14598   -10494.705            0    -9574.121   -11992.879    781.17924    9.2098007    9.2098007    9.2098007    41.904154 
   19200    302.42801   -10470.764            0   -9570.1847   -6621.6394    781.20284    9.2098934    9.2098934    9.2098934    57.695686 
   19300    302.93109   -10468.697            0   -9566.6204   -9341.8213    780.84767    9.2084975    9.2084975    9.2084975     63.00493 
   19400    306.25783   -10477.655            0   -9565.6719    4417.2426    780.59181    9.2074916    9.2074916    9.2074916    49.264467 
   19500     304.2074   -10471.061            0   -9565.1833   -7826.9063    780.39493    9.2067174    9.2067174    9.2067174    53.543532 
   19600    301.69446    -10462.19            0   -9563.7957   -476.55554    780.10758    9.2055873    9.2055873    9.2055873     52.34291 
   19700    302.33911   -10466.532            0   -9566.2175    1576.3223    780.11521    9.2056173    9.2056173    9.2056173    37.566764 
   19800    304.24701   -10474.319            0   -9568.3237    6800.4518     780.3406    9.2065037    9.2065037    9.2065037     69.63047 
   19900    289.26591   -10433.001            0   -9571.6166   -7866.2148    780.65893    9.2077555    9.2077555    9.2077555    58.091068 
   20000    312.59189   -10510.548            0   -9579.7029    1419.5967    780.91896    9.2087777    9.2087777    9.2087777    42.652344 
Loop time of 19.6789 on 16 procs for 1000 steps with 1000 atoms

Performance: 4.390 ns/day, 5.466 hours/ns, 50.816 timesteps/s
94.5% CPU use with 16 MPI tasks x no OpenMP threads

MPI task timing breakdown:
Section |  min time  |  avg time  |  max time  |%varavg| %total
---------------------------------------------------------------
Pair    | 1.9752     | 2.0186     | 2.0552     |   1.9 | 10.26
Neigh   | 0.74063    | 0.76542    | 0.79785    |   1.8 |  3.89
Comm    | 0.56378    | 0.62464    | 0.68749    |   4.5 |  3.17
Output  | 10.749     | 11.095     | 16.202     |  39.6 | 56.38
Modify  | 0.057684   | 5.1653     | 5.5113     |  58.0 | 26.25
Other   |            | 0.009756   |            |       |  0.05

Nlocal:    62.5 ave 69 max 57 min
Histogram: 2 0 2 6 0 0 2 1 2 1
Nghost:    1857.44 ave 1875 max 1839 min
Histogram: 2 0 0 3 3 3 2 0 1 2
Neighs:    0 ave 0 max 0 min
Histogram: 16 0 0 0 0 0 0 0 0 0
FullNghs:  18909.8 ave 21036 max 17036 min
Histogram: 2 0 1 7 0 0 2 1 2 1

Total # of neighbors = 302556
Ave neighs/atom = 302.556
Neighbor list builds = 1000
Dangerous builds not checked
Setting up Verlet run ...
  Unit style    : real
  Current step  : 20000
  Time step     : 1
Per MPI rank memory allocation (min/avg/max) = 4.577 | 4.579 | 4.58 Mbytes
Step Temp E_pair E_mol TotEng Press Volume Lx Ly Lz S/CPU 
   20000    312.59189   -10510.548            0   -9579.7029    1419.5967    780.91896    9.2087777    9.2087777    9.2087777            0 
   20100    302.35757   -10489.625            0   -9589.2555    5535.1081    781.33954    9.2104306    9.2104306    9.2104306    51.045402 
   20200    300.80973   -10497.988            0   -9602.2282    7056.4601    781.80642    9.2122648    9.2122648    9.2122648    50.439016 
   20300    290.47613    -10482.43            0   -9617.4414    -1259.082    782.30974    9.2142413    9.2142413    9.2142413    66.938046 
   20400    293.79818   -10506.257            0   -9631.3764   -7608.5347    783.10124    9.2173477    9.2173477    9.2173477    44.589887 
   20500    284.53429   -10489.348            0   -9642.0536   -15964.536    783.96133     9.220721     9.220721     9.220721    48.771986 
   20600    292.21899   -10519.874            0   -9649.6954   -5371.4146    784.58489     9.223165     9.223165     9.223165    40.727465 
   20700    293.62927   -10528.764            0   -9654.3858   -24394.003    784.59561    9.2232071    9.2232071    9.2232071    48.654963 
   20800    301.18485   -10553.434            0   -9656.5572   -3912.2974    783.58137    9.2192311    9.2192311    9.2192311    60.202789 
   20900    288.24607   -10513.708            0   -9655.3607   -949.82802    782.17982    9.2137311    9.2137311    9.2137311    51.503865 
   21000    303.52262   -10559.415            0   -9655.5764   -2272.8081    780.25608    9.2061713    9.2061713    9.2061713    55.383506 
Loop time of 19.6475 on 16 procs for 1000 steps with 1000 atoms

Performance: 4.398 ns/day, 5.458 hours/ns, 50.897 timesteps/s
94.5% CPU use with 16 MPI tasks x no OpenMP threads

MPI task timing breakdown:
Section |  min time  |  avg time  |  max time  |%varavg| %total
---------------------------------------------------------------
Pair    | 1.8414     | 1.9907     | 2.0902     |   4.8 | 10.13
Neigh   | 0.72363    | 0.76424    | 0.78933    |   2.0 |  3.89
Comm    | 0.53443    | 0.6459     | 0.83645    |  10.3 |  3.29
Output  | 11.015     | 11.343     | 16.183     |  37.1 | 57.73
Modify  | 0.053929   | 4.8936     | 5.2217     |  56.5 | 24.91
Other   |            | 0.009711   |            |       |  0.05

Nlocal:    62.5 ave 67 max 58 min
Histogram: 2 1 1 2 1 2 3 2 1 1
Nghost:    1865.12 ave 1886 max 1847 min
Histogram: 2 0 3 4 1 1 1 1 2 1
Neighs:    0 ave 0 max 0 min
Histogram: 16 0 0 0 0 0 0 0 0 0
FullNghs:  18919.6 ave 20350 max 17527 min
Histogram: 3 1 1 1 1 2 2 2 1 2

Total # of neighbors = 302714
Ave neighs/atom = 302.714
Neighbor list builds = 1000
Dangerous builds not checked
Setting up Verlet run ...
  Unit style    : real
  Current step  : 21000
  Time step     : 1
Per MPI rank memory allocation (min/avg/max) = 4.577 | 4.579 | 4.58 Mbytes
Step Temp E_pair E_mol TotEng Press Volume Lx Ly Lz S/CPU 
   21000    303.52262   -10559.415            0   -9655.5764   -2272.8081    780.25608    9.2061713    9.2061713    9.2061713            0 
   21100    295.00419   -10531.505            0   -9653.0329    3343.6681    777.90555    9.1969175    9.1969175    9.1969175    55.794679 
   21200    294.60936   -10527.197            0   -9649.9009    7333.9949    775.55329    9.1876381    9.1876381    9.1876381     46.85094 
   21300    302.95642   -10547.657            0   -9645.5042    15157.915    773.24605    9.1785181    9.1785181    9.1785181    53.355834 
   21400    298.35121   -10529.487            0   -9641.0479    644.18175    771.40856     9.171242     9.171242     9.171242    50.120998 
   21500    296.88392   -10520.577            0    -9636.507    21920.277    770.11399    9.1661087    9.1661087    9.1661087    61.366962 
   21600    301.70521   -10530.546            0   -9632.1197    26751.656    770.18222    9.1663794    9.1663794    9.1663794    38.963693 
   21700    313.54812   -10562.722            0   -9629.0289    18900.984    771.78024    9.1727147    9.1727147    9.1727147    59.719928 
   21800    297.85274   -10511.829            0   -9624.8747    5563.6853    774.89338    9.1850315    9.1850315    9.1850315    60.224168 
   21900    294.03383   -10495.685            0   -9620.1021    1769.2885     778.9903    9.2011904    9.2011904    9.2011904    60.862571 
   22000    296.49089    -10497.44            0    -9614.541   -6944.6781    783.26496      9.21799      9.21799      9.21799    49.811222 
Loop time of 18.9777 on 16 procs for 1000 steps with 1000 atoms

Performance: 4.553 ns/day, 5.272 hours/ns, 52.693 timesteps/s
94.5% CPU use with 16 MPI tasks x no OpenMP threads

MPI task timing breakdown:
Section |  min time  |  avg time  |  max time  |%varavg| %total
---------------------------------------------------------------
Pair    | 1.9564     | 2.0407     | 2.1412     |   4.2 | 10.75
Neigh   | 0.74407    | 0.77016    | 0.79108    |   1.7 |  4.06
Comm    | 0.5446     | 0.65786    | 0.76816    |   8.8 |  3.47
Output  | 10.446     | 10.763     | 15.433     |  36.7 | 56.72
Modify  | 0.072336   | 4.736      | 5.0522     |  55.3 | 24.96
Other   |            | 0.00983    |            |       |  0.05

Nlocal:    62.5 ave 68 max 57 min
Histogram: 3 0 2 0 2 3 1 2 2 1
Nghost:    1856.31 ave 1872 max 1833 min
Histogram: 1 0 1 2 2 2 3 0 1 4
Neighs:    0 ave 0 max 0 min
Histogram: 16 0 0 0 0 0 0 0 0 0
FullNghs:  18827.6 ave 20518 max 17161 min
Histogram: 2 1 1 1 2 3 1 3 1 1

Total # of neighbors = 301242
Ave neighs/atom = 301.242
Neighbor list builds = 1000
Dangerous builds not checked
Setting up Verlet run ...
  Unit style    : real
  Current step  : 22000
  Time step     : 1
Per MPI rank memory allocation (min/avg/max) = 4.577 | 4.579 | 4.58 Mbytes
Step Temp E_pair E_mol TotEng Press Volume Lx Ly Lz S/CPU 
   22000    296.49089    -10497.44            0    -9614.541   -6944.6781    783.26496      9.21799      9.21799      9.21799            0 
   22100    300.06487   -10500.075            0   -9606.5332   -8112.6209     787.1617    9.2332512    9.2332512    9.2332512    55.958623 
   22200    305.04952   -10506.116            0   -9597.7309   -27568.982    790.23974    9.2452705    9.2452705    9.2452705    64.539989 
   22300    305.89039    -10496.91            0   -9586.0204   -22655.294    792.18771    9.2528609    9.2528609    9.2528609    49.168978 
   22400    301.62274   -10474.062            0   -9575.8808   -19898.369    793.02181    9.2561072    9.2561072    9.2561072    46.943145 
   22500    308.46495   -10483.198            0   -9564.6417   -17166.126    792.40029    9.2536885    9.2536885    9.2536885    58.871193 
   22600    302.49569   -10455.777            0   -9554.9961   -12055.188    790.37155    9.2457845    9.2457845    9.2457845    46.632116 
   22700    298.45831   -10436.318            0   -9547.5603   -13792.204    787.13256    9.2331373    9.2331373    9.2331373    60.443571 
   22800    311.79383   -10470.294            0   -9541.8256    221.55761    783.48575     9.218856     9.218856     9.218856    41.320084 
   22900    307.96655   -10455.422            0   -9538.3502    14202.448    780.21145    9.2059958    9.2059958    9.2059958    48.191463 
   23000      315.453   -10478.196            0   -9538.8304    9380.0829    777.45301    9.1951337    9.1951337    9.1951337    61.730879 
Loop time of 19.1132 on 16 procs for 1000 steps with 1000 atoms

Performance: 4.520 ns/day, 5.309 hours/ns, 52.320 timesteps/s
94.5% CPU use with 16 MPI tasks x no OpenMP threads

MPI task timing breakdown:
Section |  min time  |  avg time  |  max time  |%varavg| %total
---------------------------------------------------------------
Pair    | 1.8667     | 1.9668     | 2.0573     |   4.1 | 10.29
Neigh   | 0.72831    | 0.76018    | 0.78196    |   1.8 |  3.98
Comm    | 0.5538     | 0.65682    | 0.78858    |   8.7 |  3.44
Output  | 10.748     | 11.058     | 15.624     |  35.5 | 57.86
Modify  | 0.098656   | 4.6617     | 4.972      |  54.6 | 24.39
Other   |            | 0.009677   |            |       |  0.05

Nlocal:    62.5 ave 67 max 56 min
Histogram: 2 1 0 2 1 0 2 2 2 4
Nghost:    1867.31 ave 1877 max 1860 min
Histogram: 2 3 1 1 3 2 1 2 0 1
Neighs:    0 ave 0 max 0 min
Histogram: 16 0 0 0 0 0 0 0 0 0
FullNghs:  18983.4 ave 20395 max 16913 min
Histogram: 2 1 0 1 2 0 2 2 4 2

Total # of neighbors = 303734
Ave neighs/atom = 303.734
Neighbor list builds = 1000
Dangerous builds not checked
Setting up Verlet run ...
  Unit style    : real
  Current step  : 23000
  Time step     : 1
Per MPI rank memory allocation (min/avg/max) = 4.577 | 4.579 | 4.58 Mbytes
Step Temp E_pair E_mol TotEng Press Volume Lx Ly Lz S/CPU 
   23000      315.453   -10478.196            0   -9538.8304    9380.0829    777.45301    9.1951337    9.1951337    9.1951337            0 
   23100    308.90432   -10459.684            0   -9539.8202    9462.6511    775.57478     9.187723     9.187723     9.187723    53.316986 
   23200    321.67802   -10500.747            0   -9542.8452     21213.88    774.66372     9.184124     9.184124     9.184124    60.753441 
   23300    299.05577   -10437.241            0   -9546.7036    36505.859    775.25973    9.1864787    9.1864787    9.1864787    57.413222 
   23400    312.27999   -10482.785            0   -9552.8683    16349.666    777.66082    9.1959529    9.1959529    9.1959529    41.981538 
   23500    313.49094   -10495.544            0    -9562.021     206.0379    781.05745     9.209322     9.209322     9.209322    54.925238 
   23600    303.48995    -10474.42            0   -9570.6785    2121.7785    784.51512    9.2228916    9.2228916    9.2228916     44.81095 
   23700    305.90719     -10491.9            0    -9580.961   -4739.1062    787.93056    9.2362564    9.2362564    9.2362564    50.009046 
   23800    295.56124   -10470.483            0   -9590.3523   -11326.421     791.0211    9.2483166    9.2483166    9.2483166    57.805617 
   23900    302.81347   -10502.219            0   -9600.4924   -26428.782    793.20938     9.256837     9.256837     9.256837    53.923565 
   24000    304.25284   -10514.657            0   -9608.6441   -17562.034      794.002    9.2599192    9.2599192    9.2599192    48.531688 
Loop time of 19.3422 on 16 procs for 1000 steps with 1000 atoms

Performance: 4.467 ns/day, 5.373 hours/ns, 51.700 timesteps/s
94.5% CPU use with 16 MPI tasks x no OpenMP threads

MPI task timing breakdown:
Section |  min time  |  avg time  |  max time  |%varavg| %total
---------------------------------------------------------------
Pair    | 1.9071     | 2.0012     | 2.1021     |   3.4 | 10.35
Neigh   | 0.74374    | 0.76478    | 0.79172    |   1.7 |  3.95
Comm    | 0.49327    | 0.62602    | 0.74304    |   7.6 |  3.24
Output  | 10.745     | 11.069     | 15.848     |  37.1 | 57.23
Modify  | 0.097435   | 4.8711     | 5.1965     |  55.8 | 25.18
Other   |            | 0.009754   |            |       |  0.05

Nlocal:    62.5 ave 66 max 58 min
Histogram: 1 0 3 1 0 3 1 4 2 1
Nghost:    1841.5 ave 1872 max 1815 min
Histogram: 2 2 1 1 3 1 2 2 0 2
Neighs:    0 ave 0 max 0 min
Histogram: 16 0 0 0 0 0 0 0 0 0
FullNghs:  18592.8 ave 19692 max 16968 min
Histogram: 1 0 1 2 2 1 2 3 1 3

Total # of neighbors = 297484
Ave neighs/atom = 297.484
Neighbor list builds = 1000
Dangerous builds not checked
Setting up Verlet run ...
  Unit style    : real
  Current step  : 24000
  Time step     : 1
Per MPI rank memory allocation (min/avg/max) = 4.577 | 4.579 | 4.58 Mbytes
Step Temp E_pair E_mol TotEng Press Volume Lx Ly Lz S/CPU 
   24000    304.25284   -10514.657            0   -9608.6441   -17562.034      794.002    9.2599192    9.2599192    9.2599192            0 
   24100     292.8389   -10486.733            0   -9614.7089   -5779.8973     793.7981    9.2591265    9.2591265    9.2591265    51.358296 
   24200    300.78293   -10517.168            0   -9621.4877   -9870.5985    792.79541    9.2552263    9.2552263    9.2552263    60.302267 
   24300    295.43875   -10505.178            0   -9625.4118   -17296.101    790.72432    9.2471598    9.2471598    9.2471598    36.956671 
   24400    294.52774   -10506.474            0   -9629.4211   -7751.3437    787.67491    9.2352574    9.2352574    9.2352574    56.045632 
   24500    300.31634   -10526.717            0   -9632.4264    12053.258    784.59436    9.2232021    9.2232021    9.2232021    41.551619 
   24600    305.91758   -10545.765            0   -9634.7947    554.99103    781.95337    9.2128419    9.2128419    9.2128419    52.594049 
   24700    301.88924   -10534.564            0   -9635.5893    9321.9026    779.83059    9.2044976    9.2044976    9.2044976    63.551813 
   24800    302.98421   -10539.563            0   -9637.3277    7853.6063    778.78363    9.2003766    9.2003766    9.2003766    62.298516 
   24900    307.61304   -10557.306            0    -9641.287    11318.771    778.46816    9.1991341    9.1991341    9.1991341    44.316139 
   25000    288.66352   -10504.167            0   -9644.5762   -10285.394    778.83497    9.2005788    9.2005788    9.2005788    67.982498 
Loop time of 19.3098 on 16 procs for 1000 steps with 1000 atoms

Performance: 4.474 ns/day, 5.364 hours/ns, 51.787 timesteps/s
94.5% CPU use with 16 MPI tasks x no OpenMP threads

MPI task timing breakdown:
Section |  min time  |  avg time  |  max time  |%varavg| %total
---------------------------------------------------------------
Pair    | 1.8353     | 1.9832     | 2.0717     |   4.5 | 10.27
Neigh   | 0.73374    | 0.76476    | 0.79195    |   1.9 |  3.96
Comm    | 0.49997    | 0.61592    | 0.77597    |   9.8 |  3.19
Output  | 10.763     | 11.087     | 15.873     |  37.1 | 57.42
Modify  | 0.063241   | 4.8487     | 5.1735     |  56.1 | 25.11
Other   |            | 0.009702   |            |       |  0.05

Nlocal:    62.5 ave 67 max 56 min
Histogram: 1 0 1 3 2 1 2 1 1 4
Nghost:    1861.06 ave 1890 max 1837 min
Histogram: 2 5 1 0 0 1 2 2 1 2
Neighs:    0 ave 0 max 0 min
Histogram: 16 0 0 0 0 0 0 0 0 0
FullNghs:  18948.4 ave 20545 max 16785 min
Histogram: 1 0 1 2 4 1 1 2 2 2

Total # of neighbors = 303174
Ave neighs/atom = 303.174
Neighbor list builds = 1000
Dangerous builds not checked
Setting up Verlet run ...
  Unit style    : real
  Current step  : 25000
  Time step     : 1
Per MPI rank memory allocation (min/avg/max) = 4.577 | 4.579 | 4.58 Mbytes
Step Temp E_pair E_mol TotEng Press Volume Lx Ly Lz S/CPU 
   25000    288.66352   -10504.167            0   -9644.5762   -10285.394    778.83497    9.2005788    9.2005788    9.2005788            0 
   25100    300.25032    -10542.97            0   -9648.8756   -6671.9232    779.65303     9.203799     9.203799     9.203799    63.513858 
   25200    305.32332   -10564.125            0    -9654.924    10734.341    780.49122    9.2070961    9.2070961    9.2070961    49.144868 
   25300    302.60117    -10560.58            0   -9659.4855   -3505.7081    781.18183    9.2098109    9.2098109    9.2098109    50.636464 
   25400    291.70784   -10531.878            0   -9663.2217   -10618.762    781.59442     9.211432     9.211432     9.211432    61.947558 
   25500    287.18212   -10523.379            0   -9668.1995   -13284.252     781.4544    9.2108819    9.2108819    9.2108819    38.340835 
   25600      288.159   -10532.338            0   -9674.2493    -4367.255    780.93863     9.208855     9.208855     9.208855    57.398637 
   25700    290.81861   -10545.809            0   -9679.8007   -12576.518    780.28512    9.2062855    9.2062855    9.2062855    56.218089 
   25800    296.42313   -10567.838            0   -9685.1409    3594.8705    779.01151    9.2012739    9.2012739    9.2012739    44.965403 
   25900    289.18488   -10550.886            0   -9689.7426   -825.19801     777.6672    9.1959781    9.1959781    9.1959781    55.427002 
   26000    292.71758   -10564.149            0   -9692.4863    -3509.549    776.34737    9.1907728    9.1907728    9.1907728    64.587609 
Loop time of 18.904 on 16 procs for 1000 steps with 1000 atoms

Performance: 4.570 ns/day, 5.251 hours/ns, 52.899 timesteps/s
94.5% CPU use with 16 MPI tasks x no OpenMP threads

MPI task timing breakdown:
Section |  min time  |  avg time  |  max time  |%varavg| %total
---------------------------------------------------------------
Pair    | 1.8384     | 2.0062     | 2.0966     |   4.6 | 10.61
Neigh   | 0.7322     | 0.76558    | 0.7924     |   2.3 |  4.05
Comm    | 0.52516    | 0.64142    | 0.83719    |  10.5 |  3.39
Output  | 10.339     | 10.66      | 15.396     |  37.4 | 56.39
Modify  | 0.084732   | 4.8206     | 5.1418     |  55.7 | 25.50
Other   |            | 0.009746   |            |       |  0.05

Nlocal:    62.5 ave 69 max 54 min
Histogram: 1 0 2 1 1 3 1 4 2 1
Nghost:    1862.19 ave 1880 max 1841 min
Histogram: 1 1 1 2 2 2 3 0 3 1
Neighs:    0 ave 0 max 0 min
Histogram: 16 0 0 0 0 0 0 0 0 0
FullNghs:  19002 ave 20946 max 16198 min
Histogram: 1 0 0 3 1 3 1 4 2 1

Total # of neighbors = 304032
Ave neighs/atom = 304.032
Neighbor list builds = 1000
Dangerous builds not checked
Setting up Verlet run ...
  Unit style    : real
  Current step  : 26000
  Time step     : 1
Per MPI rank memory allocation (min/avg/max) = 4.577 | 4.579 | 4.58 Mbytes
Step Temp E_pair E_mol TotEng Press Volume Lx Ly Lz S/CPU 
   26000    292.71758   -10564.149            0   -9692.4863    -3509.549    776.34737    9.1907728    9.1907728    9.1907728            0 
   26100    292.03051   -10564.951            0   -9695.3337    6164.6709    774.98436    9.1853909    9.1853909    9.1853909    48.934431 
   26200    286.30905   -10548.382            0   -9695.8027    27956.409     774.0967    9.1818827    9.1818827    9.1818827    56.574513 
   26300    295.57302   -10577.142            0   -9696.9759     3584.847    774.27741    9.1825971    9.1825971    9.1825971      48.4413 
   26400    297.39049   -10581.134            0   -9695.5561     2910.654    775.17415    9.1861407    9.1861407    9.1861407    45.138248 
   26500    294.41469   -10567.819            0   -9691.1025   -2203.6101    776.29147    9.1905522    9.1905522    9.1905522    48.483947 
   26600    291.01563   -10551.653            0   -9685.0583    -8102.845    777.35779    9.1947583    9.1947583    9.1947583    58.502385 
   26700    294.59581   -10553.782            0   -9676.5256   -983.93045     778.2556    9.1982968    9.1982968    9.1982968    61.243612 
   26800    295.29938   -10544.332            0   -9664.9813     -11442.8    779.00401    9.2012443    9.2012443    9.2012443    46.641539 
   26900    274.13061   -10467.178            0   -9650.8634   -9885.5094    779.19051    9.2019786    9.2019786    9.2019786    61.609916 
   27000    301.38747   -10535.332            0   -9637.8519   -24.291824    779.14018    9.2017805    9.2017805    9.2017805    46.644401 
Loop time of 19.4067 on 16 procs for 1000 steps with 1000 atoms

Performance: 4.452 ns/day, 5.391 hours/ns, 51.529 timesteps/s
94.5% CPU use with 16 MPI tasks x no OpenMP threads

MPI task timing breakdown:
Section |  min time  |  avg time  |  max time  |%varavg| %total
---------------------------------------------------------------
Pair    | 1.898      | 2.0229     | 2.1428     |   5.4 | 10.42
Neigh   | 0.72404    | 0.76651    | 0.78469    |   1.7 |  3.95
Comm    | 0.50993    | 0.64779    | 0.80963    |  10.9 |  3.34
Output  | 10.851     | 11.171     | 15.898     |  36.5 | 57.56
Modify  | 0.063555   | 4.7883     | 5.1089     |  55.7 | 24.67
Other   |            | 0.009803   |            |       |  0.05

Nlocal:    62.5 ave 69 max 58 min
Histogram: 3 0 2 5 2 0 2 0 0 2
Nghost:    1866.81 ave 1886 max 1843 min
Histogram: 2 0 1 5 0 0 0 4 1 3
Neighs:    0 ave 0 max 0 min
Histogram: 16 0 0 0 0 0 0 0 0 0
FullNghs:  18954.8 ave 21132 max 17575 min
Histogram: 3 0 3 4 2 1 1 0 1 1

Total # of neighbors = 303276
Ave neighs/atom = 303.276
Neighbor list builds = 1000
Dangerous builds not checked
Setting up Verlet run ...
  Unit style    : real
  Current step  : 27000
  Time step     : 1
Per MPI rank memory allocation (min/avg/max) = 4.577 | 4.579 | 4.58 Mbytes
Step Temp E_pair E_mol TotEng Press Volume Lx Ly Lz S/CPU 
   27000    301.38747   -10535.332            0   -9637.8519   -24.291824    779.14018    9.2017805    9.2017805    9.2017805            0 
   27100    295.42266   -10505.339            0   -9625.6208    8362.3719       779.31    9.2024489    9.2024489    9.2024489    43.930678 
   27200    308.61386   -10535.125            0   -9616.1252   -2183.6754    779.85254    9.2045839    9.2045839    9.2045839     58.79353 
   27300    292.47331   -10478.613            0   -9607.6769    264.98935    780.43367    9.2068697    9.2068697    9.2068697    49.435815 
   27400    298.80157   -10491.597            0   -9601.8171     12373.96    780.95474    9.2089183    9.2089183    9.2089183    55.247885 
   27500    310.02425   -10522.057            0    -9598.858    1964.8917     781.4363    9.2108108    9.2108108    9.2108108    47.065055 
   27600    308.89357   -10516.013            0   -9596.1809    928.72581    781.86379    9.2124901    9.2124901    9.2124901    41.807914 
   27700    311.33531   -10522.612            0   -9595.5089     1850.439    782.40576    9.2146182    9.2146182    9.2146182    42.811363 
   27800    299.88383   -10485.574            0   -9592.5712   -4259.2877    783.18066    9.2176593    9.2176593    9.2176593    47.437254 
   27900    303.24339   -10494.994            0   -9591.9865    200.66167    783.62141    9.2193881    9.2193881    9.2193881    60.527435 
   28000    304.96573   -10499.288            0   -9591.1519   -2320.6992    783.80479    9.2201072    9.2201072    9.2201072     56.75031 
Loop time of 20.1848 on 16 procs for 1000 steps with 1000 atoms

Performance: 4.280 ns/day, 5.607 hours/ns, 49.542 timesteps/s
[...]
  914700    297.06082   -11470.022            0   -10585.425    12413.656    733.95895    9.0203611    9.0203611    9.0203611    49.256304 
  914800    301.17153   -11490.215            0   -10593.378   -3563.2331    736.31103    9.0299865    9.0299865    9.0299865    52.492001 
  914900    294.95482   -11480.755            0    -10602.43   -7208.1255    738.47877    9.0388394    9.0388394    9.0388394    40.020685 
  915000    305.08445   -11521.073            0   -10612.584   -20292.937    739.76249    9.0440739    9.0440739    9.0440739    51.794575 
  915100    303.58093   -11525.084            0   -10621.072   -27319.578    739.76652    9.0440903    9.0440903    9.0440903     59.55968 
  915200    294.30032   -11504.943            0   -10628.567     -11521.1    738.69059    9.0397036    9.0397036    9.0397036    30.300578 
  915300    292.24091   -11504.308            0   -10634.064   -15928.426    737.01029    9.0328441    9.0328441    9.0328441    37.110607 
  915400    302.07112   -11538.882            0   -10639.366    5026.1698     734.9828    9.0245535    9.0245535    9.0245535    42.516189 
  915500    291.34801   -11507.747            0   -10640.162    7052.0087     733.1945    9.0172283    9.0172283    9.0172283    43.965921 
  915600    296.48177   -11524.037            0   -10641.165    12238.978    732.14575    9.0129269    9.0129269    9.0129269    42.456976 
  915700    292.37007   -11511.127            0   -10640.499     9018.398     731.9593    9.0121618    9.0121618    9.0121618    49.684737 
  915800    293.92322   -11514.702            0   -10639.449    11889.971    732.72504    9.0153033    9.0153033    9.0153033    54.778923 
  915900    282.66774   -11479.103            0   -10637.366    6396.0646    734.33222      9.02189      9.02189      9.02189     61.66308 
  916000    289.27674   -11496.877            0    -10635.46   -12224.769    736.43872    9.0305085    9.0305085    9.0305085    46.876045 
  916100    293.63273   -11508.395            0   -10634.007   -7910.3343    738.33798     9.038265     9.038265     9.038265     62.62776 
  916200    303.57768   -11535.126            0   -10631.123   -12477.127    739.53709    9.0431552    9.0431552    9.0431552    53.489609 
  916300    305.16576   -11535.035            0   -10626.303   -14116.685    739.77912    9.0441417    9.0441417    9.0441417    42.471046 
  916400    293.39976   -11495.243            0   -10621.548   -6923.7479     739.2852    9.0421284    9.0421284    9.0421284    36.675034 
  916500    287.30797   -11472.457            0   -10616.903   -12665.813    738.07974    9.0372111    9.0372111    9.0372111    46.658481 
  916600    301.07921   -11509.649            0   -10613.086   -7817.2086    736.35477    9.0301653    9.0301653    9.0301653     50.95945 
  916700    300.51322   -11501.979            0   -10607.102    12719.239     734.6289    9.0231048    9.0231048    9.0231048    40.526359 
  916800    296.15935   -11484.321            0   -10602.409     8452.091    733.37552    9.0179704    9.0179704    9.0179704    46.588527 
  916900    305.17816   -11509.048            0   -10600.279    19447.127    733.10304    9.0168533    9.0168533    9.0168533    58.545406 
  917000    288.75165   -11454.544            0   -10594.691    12558.966    733.94548    9.0203059    9.0203059    9.0203059    51.784045 
  917100    298.40564   -11482.428            0   -10593.827    4874.4485    735.39098    9.0262238    9.0262238    9.0262238    39.712552 
  917200    306.92931   -11507.322            0   -10593.339   -2488.4954    737.15442    9.0334329    9.0334329    9.0334329    43.005173 
  917300    312.52347   -11523.206            0   -10592.564   -5257.0317    738.54604    9.0391139    9.0391139    9.0391139    58.158659 
  917400    305.04304   -11500.579            0   -10592.213   -7387.5398    739.46662     9.042868     9.042868     9.042868    32.138303 
  917500    301.87037   -11490.672            0   -10591.754   -11365.826    739.62094     9.043497     9.043497     9.043497    47.654465 
  917600    309.15457   -11513.007            0   -10592.398   -9316.3836    738.97307    9.0408557    9.0408557    9.0408557    54.155522 
  917700    289.61093   -11455.201            0   -10592.789    -6728.993    737.75829     9.035899     9.035899     9.035899    34.599488 
  917800    296.65234   -11476.925            0   -10593.545    5822.7814    736.35736    9.0301759    9.0301759    9.0301759    56.050602 
  917900     301.5593    -11494.38            0   -10596.388    2718.9051    735.07609    9.0249353    9.0249353    9.0249353    51.514102 
  918000    306.91243     -11514.6            0   -10600.667    9159.2281    734.38353    9.0221001    9.0221001    9.0221001    41.211863 
  918100     302.7593   -11509.496            0   -10607.931   -2325.6901    734.34415    9.0219388    9.0219388    9.0219388     59.02002 
  918200    300.67896   -11512.042            0   -10616.671    13716.936    734.79428    9.0237819    9.0237819    9.0237819    63.332284 
  918300       313.05   -11560.713            0   -10628.504   -951.52347    735.53352     9.026807     9.026807     9.026807    47.254629 
  918400    294.44287   -11512.456            0   -10635.655    -621.4363    736.42893    9.0304685    9.0304685    9.0304685    52.550445 
  918500    302.59067    -11546.24            0   -10645.177    6688.3981    737.31902    9.0341052    9.0341052    9.0341052    57.586161 
  918600    284.35263   -11498.509            0   -10651.756    -11352.82    737.87255    9.0363654    9.0363654    9.0363654     41.27785 
  918700    293.63071   -11531.983            0   -10657.601   -15373.209     737.7938    9.0360439    9.0360439    9.0360439    50.854948 
  918800     290.9026   -11528.922            0   -10662.663   -5695.6307    737.12397    9.0333085    9.0333085    9.0333085    58.582887 
  918900    291.87411   -11534.758            0   -10665.606    -2507.252    736.02082       9.0288       9.0288       9.0288    47.329452 
  919000    291.21578   -11533.785            0   -10666.594    2812.2808    734.88634    9.0241587    9.0241587    9.0241587    57.617937 
  919100    292.48763   -11536.763            0   -10665.784    7563.7584    734.12657    9.0210477    9.0210477    9.0210477    62.512931 
  919200    279.80118    -11495.93            0    -10662.73    2789.0636    733.87722    9.0200262    9.0200262    9.0200262    44.141767 
  919300    296.67428   -11543.199            0   -10659.753    13860.943    734.06133    9.0207805    9.0207805    9.0207805    37.493939 
  919400    297.15802   -11537.838            0   -10652.953   -1717.7337     734.7353    9.0235404    9.0235404    9.0235404    43.041193 
  919500    285.31456   -11493.865            0   -10644.247   -3172.5698    735.77674    9.0278018    9.0278018    9.0278018    48.660514 
  919600    297.29739   -11519.051            0    -10633.75   -2349.9536    736.89681    9.0323805    9.0323805    9.0323805    59.157338 
  919700    304.06289   -11528.401            0   -10622.953   -6850.6994    737.77238    9.0359565    9.0359565    9.0359565    35.341803 
  919800    311.47382   -11539.818            0   -10612.302   -4445.0778    738.16305    9.0375512    9.0375512    9.0375512    44.691899 
  919900    296.75545   -11484.893            0   -10601.206   -5479.0531    737.95655    9.0367083    9.0367083    9.0367083    50.377635 
  920000    301.44634   -11490.102            0   -10592.446   -3433.4996    737.24277    9.0337938    9.0337938    9.0337938    35.253197 
  920100    310.18373   -11510.331            0   -10586.657    5513.1979    736.30981    9.0299815    9.0299815    9.0299815    60.789302 
  920200    304.14427   -11488.265            0   -10582.576   -1759.3087    735.41616    9.0263269    9.0263269    9.0263269    52.373281 
  920300    296.07171   -11459.546            0   -10577.895    11569.464    735.04478    9.0248072    9.0248072    9.0248072    39.840673 
  920400    309.49036   -11498.274            0   -10576.665    6926.1517    735.31104    9.0258968    9.0258968    9.0258968    63.049841 
  920500    294.07015   -11450.119            0   -10574.429   -6968.0884    736.02351     9.028811     9.028811     9.028811    47.176679 
  920600    297.49497   -11459.769            0    -10573.88    5017.4159     736.9003    9.0323948    9.0323948    9.0323948    44.427707 
  920700    299.53943   -11466.947            0    -10574.97   -7825.9075    737.86096    9.0363181    9.0363181    9.0363181    56.372496 
  920800     313.4374   -11508.783            0    -10575.42   -9332.2452     738.6009    9.0393377    9.0393377    9.0393377    39.814904 
  920900    298.55351   -11465.261            0    -10576.22   -24462.278    738.84986    9.0403532    9.0403532    9.0403532    61.197481 
  921000    304.64137   -11484.113            0   -10576.943    -6523.588    738.42656    9.0386264    9.0386264    9.0386264    44.884868 
  921100    311.17346   -11508.004            0   -10581.382   -3404.8124    737.48609    9.0347875    9.0347875    9.0347875     50.16636 
  921200    303.96348   -11489.395            0   -10584.244    3794.7415    736.33007    9.0300644    9.0300644    9.0300644    52.404943 
  921300    303.93112   -11493.043            0   -10587.988    10397.513    735.20654    9.0254692    9.0254692    9.0254692    65.074795 
  921400    296.35951   -11475.402            0   -10592.894    5030.2536    734.52125    9.0226641    9.0226641    9.0226641    39.981057 
  921500    289.96164   -11462.978            0   -10599.522    5218.5771    734.28822    9.0217098    9.0217098    9.0217098    40.942905 
  921600    293.85731   -11482.106            0   -10607.049    21798.627    734.86263    9.0240617    9.0240617    9.0240617    40.317285 
  921700    293.26903   -11492.624            0   -10619.319    8235.5285    736.25194     9.029745     9.029745     9.029745     43.18591 
  921800    300.25016   -11528.439            0   -10634.345   -6066.9792    737.96783    9.0367544    9.0367544    9.0367544    61.301349 
  921900      291.734   -11519.588            0   -10650.854   -21423.298    739.53973     9.043166     9.043166     9.043166     29.72496 
  922000    292.54169   -11535.513            0   -10664.373   -25390.164    740.39823    9.0466639    9.0466639    9.0466639    56.992539 
  922100    283.58209   -11518.316            0   -10673.857    -23687.34    739.87849    9.0445466    9.0445466    9.0445466    58.946022 
  922200    284.75996   -11527.646            0    -10679.68   -16904.485    737.96661    9.0367494    9.0367494    9.0367494    39.038479 
  922300     292.7066   -11552.906            0   -10681.276    8309.4603    734.98049    9.0245441    9.0245441    9.0245441    64.750526 
  922400     285.7805   -11531.137            0   -10680.131    15585.913    731.87804    9.0118282    9.0118282    9.0118282    52.121584 
  922500    293.77062    -11551.57            0   -10676.771    29152.667     729.6605    9.0027173    9.0027173    9.0027173    50.203654 
  922600     291.4529   -11540.194            0   -10672.297    32820.989    729.22191    9.0009131    9.0009131    9.0009131    36.478337 
  922700    298.41198   -11556.522            0   -10667.902    23583.889     730.5997    9.0065783    9.0065783    9.0065783    53.639871 
  922800    301.00961   -11558.926            0   -10662.571    1980.5679    733.48883    9.0184348    9.0184348    9.0184348    58.616131 
  922900    297.23945   -11541.685            0   -10656.557    2615.7316    736.90363    9.0324084    9.0324084    9.0324084    51.779199 
  923000    293.55205   -11522.846            0   -10648.698    -14516.82    739.91951    9.0447137    9.0447137    9.0447137    49.359621 
  923100    301.57014   -11537.773            0   -10639.749    -22153.92    742.03881    9.0533409    9.0533409    9.0533409    52.563485 
  923200    293.02168   -11504.431            0   -10631.863   -43363.278    742.75786    9.0562642    9.0562642    9.0562642    47.254039 
  923300    301.62836   -11522.531            0   -10624.333   -14518.354    741.51172    9.0511968    9.0511968    9.0511968    32.998382 
  923400    288.06304   -11473.399            0   -10615.596   -7858.0654     738.8262    9.0402567    9.0402567    9.0402567    60.429386 
  923500     302.9021   -11513.128            0   -10611.137    7566.1161    735.49455    9.0266476    9.0266476    9.0266476    39.107024 
  923600    296.14072   -11485.464            0   -10603.607    20910.806    732.54331    9.0145579    9.0145579    9.0145579    55.077949 
  923700    294.92102     -11476.6            0   -10598.375    38170.872    730.81274    9.0074537    9.0074537    9.0074537    58.837642 
  923800    302.56307    -11497.21            0   -10596.228    22119.687    731.03131    9.0083515    9.0083515    9.0083515    48.995353 
  923900      310.788   -11520.776            0   -10595.302    14938.627     732.9685    9.0163017    9.0163017    9.0163017    55.002142 
  924000    295.16985   -11471.643            0   -10592.678   -1169.0882    735.83464    9.0280386    9.0280386    9.0280386    48.596799 
  924100    298.59098   -11480.768            0   -10591.615   -21013.929    738.76861    9.0400218    9.0400218    9.0400218     34.37443 
  924200     304.7324   -11496.739            0   -10589.298   -22630.611    740.79835    9.0482933    9.0482933    9.0482933    44.857009 
  924300    302.83431   -11490.193            0   -10588.404   -27361.484    741.45749    9.0509761    9.0509761    9.0509761    49.069787 
  924400    309.97146   -11511.375            0   -10588.333   -32630.521    740.58408    9.0474208    9.0474208    9.0474208    44.131741 
  924500       313.09   -11519.949            0   -10587.621   -2067.2064    738.20162    9.0377085    9.0377085    9.0377085    65.366834 
  924600     312.3815    -11519.29            0   -10589.071   -370.19308    735.26556    9.0257107    9.0257107    9.0257107    45.248172 
  924700    297.97109   -11475.434            0   -10588.127    11334.619    732.60209    9.0147991    9.0147991    9.0147991    53.843234 
  924800    296.67383   -11475.859            0   -10592.415    20414.388    730.86573    9.0076714    9.0076714    9.0076714    42.758467 
  924900    306.03854   -11511.451            0    -10600.12    21470.305    730.56256    9.0064257    9.0064257    9.0064257    46.339107 
  925000    300.77082   -11508.133            0   -10612.489    26569.435     731.8014    9.0115137    9.0115137    9.0115137    48.519614 
  925100    303.85405   -11535.839            0   -10631.013    11671.377    734.25483     9.021573     9.021573     9.021573    58.997366 
  925200     294.4623   -11524.298            0   -10647.439    -20309.04    737.26778    9.0338959    9.0338959    9.0338959    46.923212 
  925300    295.33101   -11541.204            0   -10661.758   -17671.755    739.72136    9.0439063    9.0439063    9.0439063    44.250193 
  925400    285.41718   -11519.052            0   -10669.128   -33907.577    740.76458    9.0481558    9.0481558    9.0481558    36.854537 
  925500    294.89585   -11552.069            0    -10673.92   -27261.019    740.28718    9.0462116    9.0462116    9.0462116    33.016458 
  925600    293.83837   -11551.262            0   -10676.261   -14463.654    738.45453    9.0387405    9.0387405    9.0387405    46.698505 
  925700     293.2527   -11549.132            0   -10675.875     157.3145    735.69227    9.0274563    9.0274563    9.0274563     52.30452 
  925800    295.47644    -11554.84            0   -10674.962    9126.3028    732.86366    9.0158718    9.0158718    9.0158718    45.421717 
  925900    289.78486   -11532.047            0   -10669.117    19795.329    730.80174    9.0074085    9.0074085    9.0074085    39.286055 
  926000    290.82486       -11530            0   -10663.973    14536.377    730.03946    9.0042756    9.0042756    9.0042756    56.665621 
  926100    292.55472   -11529.962            0   -10658.784    25634.142    730.77847    9.0073129    9.0073129    9.0073129    48.244171 
  926200    304.12946   -11558.539            0   -10652.894    16094.288    732.95979     9.016266     9.016266     9.016266    33.482907 
  926300    298.93762   -11534.403            0   -10644.217   -6990.2015    736.07303    9.0290135    9.0290135    9.0290135    40.591062 
  926400    292.79056    -11506.08            0     -10634.2   -13542.984    739.03911     9.041125     9.041125     9.041125    45.722875 
  926500    298.32859   -11513.545            0   -10625.173   -24949.632    740.89931    9.0487043    9.0487043    9.0487043    47.443351 
  926600    292.70879   -11486.531            0   -10614.894   -25326.091     741.1991    9.0499246    9.0499246    9.0499246    43.719721 
  926700    307.58056   -11525.132            0   -10609.209   -28806.164    739.88031     9.044554     9.044554     9.044554    39.553976 
  926800    295.62295   -11482.999            0   -10602.684    -3386.924    737.46434    9.0346987    9.0346987    9.0346987    48.191474 
  926900    306.02166   -11510.177            0   -10598.896   -7758.6818     734.9579    9.0244516    9.0244516    9.0244516    42.742813 
  927000    300.20531   -11489.706            0   -10595.746    27031.234    733.01386    9.0164877    9.0164877    9.0164877    40.970199 
  927100     296.8367   -11479.019            0    -10595.09    14777.909    732.17035    9.0130278    9.0130278    9.0130278    51.810453 
  927200    308.30791   -11512.826            0   -10594.738    10005.726    732.56853    9.0146614    9.0146614    9.0146614    61.112752 
  927300     305.2738   -11505.413            0    -10596.36    15662.035    733.92097    9.0202055    9.0202055    9.0202055    50.977621 
  927400    310.02249   -11521.723            0   -10598.529   -1520.8498    735.89185    9.0282726    9.0282726    9.0282726    47.201786 
  927500    301.07118    -11495.71            0   -10599.171   -8082.1963    737.82831    9.0361848    9.0361848    9.0361848    59.678791 
  927600    305.29008   -11510.692            0    -10601.59   -15833.013    739.06592    9.0412343    9.0412343    9.0412343     28.01332 
  927700    301.39958   -11499.663            0   -10602.147   -24079.091    739.40892    9.0426328    9.0426328    9.0426328    31.810073 
  927800    297.75325   -11491.138            0    -10604.48    61.888662    738.78338     9.040082     9.040082     9.040082      36.6536 
  927900    300.58412   -11500.242            0   -10605.154   -13535.375    737.55842    9.0350829    9.0350829    9.0350829    52.918344 
  928000    300.29365   -11501.147            0   -10606.924    4294.3218    735.89231    9.0282745    9.0282745    9.0282745    63.596946 
Loop time of 2225.21 on 16 procs for 100000 steps with 1000 atoms

Performance: 3.883 ns/day, 6.181 hours/ns, 44.940 timesteps/s
94.3% CPU use with 16 MPI tasks x no OpenMP threads

MPI task timing breakdown:
Section |  min time  |  avg time  |  max time  |%varavg| %total
---------------------------------------------------------------
Pair    | 180.09     | 188.85     | 198.25     |  36.8 |  8.49
Neigh   | 72.596     | 76.316     | 80.365     |  24.5 |  3.43
Comm    | 52.961     | 66.674     | 79.022     |  86.2 |  3.00
Output  | 1269.5     | 1308.3     | 1883.4     | 410.5 | 58.80
Modify  | 9.2532     | 584.09     | 622.87     | 614.1 | 26.25
Other   |            | 0.942      |            |       |  0.04

Nlocal:    62.5 ave 69 max 57 min
Histogram: 3 0 1 1 4 2 1 3 0 1
Nghost:    1937.44 ave 1968 max 1907 min
Histogram: 5 2 1 0 0 0 0 1 3 4
Neighs:    0 ave 0 max 0 min
Histogram: 16 0 0 0 0 0 0 0 0 0
FullNghs:  19997.8 ave 22235 max 18023 min
Histogram: 3 0 1 2 4 0 2 2 1 1

Total # of neighbors = 319964
Ave neighs/atom = 319.964
Neighbor list builds = 100000
Dangerous builds not checked
Total wall time: 5:38:35
