LAMMPS (16 Mar 2018)
Reading data file ...
  orthogonal box = (-4.73624 -4.73624 -4.73624) to (4.73624 4.73624 4.73624)
  2 by 1 by 2 MPI processor grid
  reading atoms ...
  1000 atoms
Reading potential file /home/fs01/ajm529/lammps-16Mar18/potentials/sw_potentials/AG/eps2.23.sw with DATE: 2008-01-29
Neighbor list info ...
  update every 1 steps, delay 0 steps, check no
  max neighbors/atom: 2000, page size: 100000
  master list distance cutoff = 3.836
  ghost atom cutoff = 3.836
  binsize = 1.918, bins = 5 5 5
  1 neighbor lists, perpetual/occasional/extra = 1 0 0
  (1) pair sw, perpetual
      attributes: full, newton on
      pair build: full/bin/atomonly
      stencil: full/bin/3d
      bin: standard
Setting up Verlet run ...
  Unit style    : real
  Current step  : 0
  Time step     : 1
Per MPI rank memory allocation (min/avg/max) = 3.619 | 3.619 | 3.62 Mbytes
Step Temp E_pair E_mol TotEng Press Volume Lx Ly Lz S/CPU 
       0          300   -10012.524            0   -9119.1754   -28753.517     849.9438    9.4724736    9.4724736    9.4724736            0 
     100     333.0527   -10118.021            0   -9126.2469   -51008.338     847.9829    9.4651834    9.4651834    9.4651834    28.557813 
     200    340.66062   -10160.962            0   -9146.5332   -40934.217    841.82424    9.4422134    9.4422134    9.4422134    29.448823 
     300     341.1434   -10191.503            0   -9175.6364   -38699.777     832.0399    9.4054891    9.4054891    9.4054891    31.328267 
     400     330.5759   -10188.134            0   -9203.7352   -12170.789    820.04875    9.3600871    9.3600871    9.3600871    34.043581 
     500    345.87975   -10255.568            0   -9225.5974   -2955.9754    808.42916    9.3156677    9.3156677    9.3156677    28.787999 
     600    345.43415   -10273.239            0   -9244.5947    4621.0648    798.82685    9.2786377    9.2786377    9.2786377    30.485045 
     700    342.12983   -10285.273            0   -9266.4693    1009.8247    791.41758    9.2498615    9.2498615    9.2498615    27.172754 
     800    328.45479   -10266.598            0    -9288.516    24881.808    786.20377    9.2295043    9.2295043    9.2295043    30.031665 
     900    339.29511   -10323.423            0   -9313.0602    38399.328     783.5822    9.2192343    9.2192343    9.2192343    27.559238 
    1000    339.73856    -10351.96            0   -9340.2761    8196.4002    783.05425    9.2171633    9.2171633    9.2171633    31.544062 
Loop time of 33.5895 on 4 procs for 1000 steps with 1000 atoms

Performance: 2.572 ns/day, 9.330 hours/ns, 29.771 timesteps/s
85.5% CPU use with 4 MPI tasks x no OpenMP threads

MPI task timing breakdown:
Section |  min time  |  avg time  |  max time  |%varavg| %total
---------------------------------------------------------------
Pair    | 8.8832     | 9.0597     | 9.335      |   5.6 | 26.97
Neigh   | 3.5557     | 3.5968     | 3.6968     |   3.1 | 10.71
Comm    | 1.4697     | 1.8449     | 2.0619     |  16.6 |  5.49
Output  | 13.382     | 14.793     | 19.019     |  63.4 | 44.04
Modify  | 0.052462   | 4.2788     | 5.6897     | 118.0 | 12.74
Other   |            | 0.01626    |            |       |  0.05

Nlocal:    250 ave 254 max 243 min
Histogram: 1 0 0 0 0 0 1 0 0 2
Nghost:    3012.5 ave 3025 max 3001 min
Histogram: 1 0 1 0 0 0 1 0 0 1
Neighs:    0 ave 0 max 0 min
Histogram: 4 0 0 0 0 0 0 0 0 0
FullNghs:  75331.5 ave 76804 max 72875 min
Histogram: 1 0 0 0 0 0 1 0 1 1

Total # of neighbors = 301326
Ave neighs/atom = 301.326
Neighbor list builds = 1000
Dangerous builds not checked
Setting up Verlet run ...
  Unit style    : real
  Current step  : 1000
  Time step     : 1
Per MPI rank memory allocation (min/avg/max) = 3.624 | 3.625 | 3.625 Mbytes
Step Temp E_pair E_mol TotEng Press Volume Lx Ly Lz S/CPU 
    1000    339.73856    -10351.96            0   -9340.2761    8196.4002    783.05425    9.2171633    9.2171633    9.2171633            0 
    1100    328.57202   -10344.787            0   -9366.3559    7811.4836    783.51767    9.2189813    9.2189813    9.2189813     30.23793 
    1200    334.85487   -10387.553            0   -9390.4119    6851.5244     784.5366    9.2229758    9.2229758    9.2229758    26.799754 
    1300    318.36518   -10360.478            0   -9412.4406    5669.9329    786.04293    9.2288748    9.2288748    9.2288748    30.258734 
    1400    331.31256   -10421.575            0   -9434.9823     10252.81    788.54341    9.2386504    9.2386504    9.2386504    27.760717 
    1500    299.34065    -10347.98            0   -9456.5948   -2826.3608    791.43536    9.2499308    9.2499308    9.2499308    27.605041 
    1600    308.55668   -10395.656            0   -9476.8266   -9005.7153    793.93669    9.2596653    9.2596653    9.2596653    24.425227 
    1700    311.67865   -10425.465            0    -9497.339    8924.4963    795.84807    9.2670902    9.2670902    9.2670902    26.304057 
    1800    320.56769   -10470.164            0   -9515.5686   -15124.448    797.35616      9.27294      9.27294      9.27294    19.983917 
    1900    302.87268   -10433.881            0    -9531.978   -13206.602    797.78977    9.2746206    9.2746206    9.2746206    30.731792 
    2000    317.09707   -10493.483            0   -9549.2217   -18658.713    797.00177     9.271566     9.271566     9.271566    23.844866 
Loop time of 37.9157 on 4 procs for 1000 steps with 1000 atoms

Performance: 2.279 ns/day, 10.532 hours/ns, 26.374 timesteps/s
84.7% CPU use with 4 MPI tasks x no OpenMP threads

MPI task timing breakdown:
Section |  min time  |  avg time  |  max time  |%varavg| %total
---------------------------------------------------------------
Pair    | 9.1731     | 9.4717     | 9.761      |   6.8 | 24.98
Neigh   | 3.4766     | 3.6046     | 3.7686     |   5.6 |  9.51
Comm    | 1.4622     | 1.9159     | 2.3434     |  22.6 |  5.05
Output  | 16.213     | 17.878     | 22.865     |  68.1 | 47.15
Modify  | 0.041979   | 5.0295     | 6.694      | 128.4 | 13.26
Other   |            | 0.0164     |            |       |  0.04

Nlocal:    250 ave 257 max 246 min
Histogram: 2 0 0 1 0 0 0 0 0 1
Nghost:    2966 ave 2986 max 2939 min
Histogram: 1 0 0 0 1 0 0 0 1 1
Neighs:    0 ave 0 max 0 min
Histogram: 4 0 0 0 0 0 0 0 0 0
FullNghs:  74061 ave 76542 max 72977 min
Histogram: 2 0 1 0 0 0 0 0 0 1

Total # of neighbors = 296244
Ave neighs/atom = 296.244
Neighbor list builds = 1000
Dangerous builds not checked
Setting up Verlet run ...
  Unit style    : real
  Current step  : 2000
  Time step     : 1
Per MPI rank memory allocation (min/avg/max) = 3.624 | 3.625 | 3.625 Mbytes
Step Temp E_pair E_mol TotEng Press Volume Lx Ly Lz S/CPU 
    2000    317.09707   -10493.483            0   -9549.2217   -18658.713    797.00177     9.271566     9.271566     9.271566            0 
    2100    304.06328   -10470.381            0   -9564.9324   -7965.2774    795.25538    9.2647891    9.2647891    9.2647891    23.994106 
    2200     306.3793   -10492.369            0   -9580.0242   -9719.9783    793.12053    9.2564913    9.2564913    9.2564913    28.980317 
    2300     298.2587   -10483.099            0   -9594.9351   -3727.9683    790.62246    9.2467628    9.2467628    9.2467628    17.716612 
    2400    304.45496   -10515.941            0   -9609.3266    6897.2379    787.81779    9.2358158    9.2358158    9.2358158    26.305872 
    2500    302.28802   -10522.057            0   -9621.8945   -1740.6164    784.90241    9.2244091    9.2244091    9.2244091    31.434405 
    2600    299.22307   -10523.617            0   -9632.5815   -3314.1897     781.8899    9.2125926    9.2125926    9.2125926    29.176153 
    2700    296.78322   -10525.548            0   -9641.7786    10036.146    778.99003    9.2011893    9.2011893    9.2011893    32.983001 
    2800    282.57985   -10490.717            0   -9649.2429    6902.1705    776.57012    9.1916517    9.1916517    9.1916517    25.727262 
    2900    298.71926   -10546.564            0   -9657.0293    20210.768    775.10564    9.1858701    9.1858701    9.1858701    28.516024 
    3000    294.56276   -10540.237            0   -9663.0791     7390.365    774.64072    9.1840331    9.1840331    9.1840331    31.064356 
Loop time of 37.3176 on 4 procs for 1000 steps with 1000 atoms

Performance: 2.315 ns/day, 10.366 hours/ns, 26.797 timesteps/s
84.9% CPU use with 4 MPI tasks x no OpenMP threads

MPI task timing breakdown:
Section |  min time  |  avg time  |  max time  |%varavg| %total
---------------------------------------------------------------
Pair    | 9.2051     | 9.6197     | 10.204     |  11.8 | 25.78
Neigh   | 3.5006     | 3.631      | 3.8108     |   6.0 |  9.73
Comm    | 1.0404     | 1.804      | 2.348      |  35.7 |  4.83
Output  | 16.061     | 17.597     | 22.197     |  63.3 | 47.15
Modify  | 0.04832    | 4.6498     | 6.1863     | 123.2 | 12.46
Other   |            | 0.01633    |            |       |  0.04

Nlocal:    250 ave 251 max 249 min
Histogram: 1 0 0 0 0 2 0 0 0 1
Nghost:    3025.5 ave 3035 max 3013 min
Histogram: 1 0 0 1 0 0 0 0 0 2
Neighs:    0 ave 0 max 0 min
Histogram: 4 0 0 0 0 0 0 0 0 0
FullNghs:  76195 ave 76569 max 75568 min
Histogram: 1 0 0 0 0 1 0 0 0 2

Total # of neighbors = 304780
Ave neighs/atom = 304.78
Neighbor list builds = 1000
Dangerous builds not checked
Setting up Verlet run ...
  Unit style    : real
  Current step  : 3000
  Time step     : 1
Per MPI rank memory allocation (min/avg/max) = 3.625 | 3.625 | 3.626 Mbytes
Step Temp E_pair E_mol TotEng Press Volume Lx Ly Lz S/CPU 
    3000    294.56276   -10540.237            0   -9663.0791     7390.365    774.64072    9.1840331    9.1840331    9.1840331            0 
    3100    281.79398   -10506.677            0   -9667.5428   -604.50558    774.73157    9.1843921    9.1843921    9.1843921    29.268541 
    3200    299.89703   -10563.777            0   -9670.7345    6722.9479    774.88101    9.1849826    9.1849826    9.1849826    31.787312 
    3300    289.52863   -10533.737            0   -9671.5701    20504.706    775.31536    9.1866985    9.1866985    9.1866985    24.586889 
    3400    290.87219    -10537.11            0    -9670.942    7052.3236    776.28255     9.190517     9.190517     9.190517     26.12863 
    3500     286.7968   -10522.813            0   -9668.7808    3889.6287    777.45636    9.1951469    9.1951469    9.1951469    30.020369 
    3600    277.65779   -10491.245            0   -9664.4273    13526.306    778.70401     9.200063     9.200063     9.200063    25.191282 
    3700    298.57346   -10548.112            0   -9659.0108   -2289.6608    780.21399    9.2060058    9.2060058    9.2060058    27.105601 
    3800    288.99922   -10509.363            0   -9648.7728    -6757.411    781.59976     9.211453     9.211453     9.211453    30.360581 
    3900    300.20292    -10534.18            0   -9640.2274    19764.029    782.70412    9.2157894    9.2157894    9.2157894    25.849348 
    4000    295.67312   -10509.692            0   -9629.2279   -13376.655    783.83473    9.2202246    9.2202246    9.2202246    28.126765 
Loop time of 36.1646 on 4 procs for 1000 steps with 1000 atoms

Performance: 2.389 ns/day, 10.046 hours/ns, 27.651 timesteps/s
85.4% CPU use with 4 MPI tasks x no OpenMP threads

MPI task timing breakdown:
Section |  min time  |  avg time  |  max time  |%varavg| %total
---------------------------------------------------------------
Pair    | 9.1153     | 9.681      | 10.272     |  14.1 | 26.77
Neigh   | 3.4319     | 3.605      | 3.8323     |   8.6 |  9.97
Comm    | 1.1933     | 2.011      | 2.7487     |  42.3 |  5.56
Output  | 14.584     | 16.141     | 20.808     |  67.1 | 44.63
Modify  | 0.042332   | 4.7103     | 6.2691     | 124.2 | 13.02
Other   |            | 0.01623    |            |       |  0.04

Nlocal:    250 ave 256 max 242 min
Histogram: 1 0 1 0 0 0 0 0 0 2
Nghost:    3017.25 ave 3034 max 2996 min
Histogram: 1 0 0 0 0 0 2 0 0 1
Neighs:    0 ave 0 max 0 min
Histogram: 4 0 0 0 0 0 0 0 0 0
FullNghs:  75240 ave 77375 max 72799 min
Histogram: 1 0 1 0 0 0 0 0 0 2

Total # of neighbors = 300960
Ave neighs/atom = 300.96
Neighbor list builds = 1000
Dangerous builds not checked
Setting up Verlet run ...
  Unit style    : real
  Current step  : 4000
  Time step     : 1
Per MPI rank memory allocation (min/avg/max) = 3.625 | 3.625 | 3.626 Mbytes
Step Temp E_pair E_mol TotEng Press Volume Lx Ly Lz S/CPU 
    4000    295.67312   -10509.692            0   -9629.2279   -13376.655    783.83473    9.2202246    9.2202246    9.2202246            0 
    4100    308.01763   -10537.899            0   -9620.6747   -10002.365    784.22024    9.2217359    9.2217359    9.2217359    30.853915 
    4200    307.51241   -10527.535            0   -9611.8152    10081.153    783.86512    9.2203438    9.2203438    9.2203438    23.526828 
    4300    295.65995   -10483.268            0   -9602.8427    7120.5417    783.49152    9.2188787    9.2188787    9.2188787    33.917215 
    4400      300.087   -10489.768            0   -9596.1597    2926.9223     783.4174     9.218588     9.218588     9.218588    25.891236 
    4500    299.58936   -10481.922            0   -9589.7959   -1304.7333    783.57739    9.2192155    9.2192155    9.2192155    28.101763 
    4600    305.33917   -10495.774            0   -9586.5263    9756.5393    784.01124    9.2209167    9.2209167    9.2209167    29.690079 
    4700    301.14874   -10479.426            0   -9582.6562       2480.1     784.9178    9.2244694    9.2244694    9.2244694    29.273315 
    4800    308.31759   -10497.852            0   -9579.7353   -632.05416    786.03832    9.2288568    9.2288568    9.2288568    30.854553 
    4900    303.35514   -10481.644            0   -9578.3043    8224.7708    787.38299    9.2341164    9.2341164    9.2341164    25.018411 
    5000    313.53106    -10511.59            0   -9577.9483    7491.8585    788.90492    9.2400621    9.2400621    9.2400621    23.119057 
Loop time of 36.2085 on 4 procs for 1000 steps with 1000 atoms

Performance: 2.386 ns/day, 10.058 hours/ns, 27.618 timesteps/s
85.2% CPU use with 4 MPI tasks x no OpenMP threads

MPI task timing breakdown:
Section |  min time  |  avg time  |  max time  |%varavg| %total
---------------------------------------------------------------
Pair    | 9.1697     | 9.533      | 10.087     |  11.8 | 26.33
Neigh   | 3.4755     | 3.6138     | 3.8185     |   7.2 |  9.98
Comm    | 1.1887     | 1.9475     | 2.4207     |  36.0 |  5.38
Output  | 14.897     | 16.438     | 21.057     |  65.8 | 45.40
Modify  | 0.040541   | 4.6598     | 6.202      | 123.5 | 12.87
Other   |            | 0.01624    |            |       |  0.04

Nlocal:    250 ave 253 max 246 min
Histogram: 1 0 0 0 0 1 0 1 0 1
Nghost:    2983.25 ave 2995 max 2967 min
Histogram: 1 0 0 1 0 0 0 0 0 2
Neighs:    0 ave 0 max 0 min
Histogram: 4 0 0 0 0 0 0 0 0 0
FullNghs:  74863 ave 75696 max 73927 min
Histogram: 1 0 0 0 0 1 1 0 0 1

Total # of neighbors = 299452
Ave neighs/atom = 299.452
Neighbor list builds = 1000
Dangerous builds not checked
Setting up Verlet run ...
  Unit style    : real
  Current step  : 5000
  Time step     : 1
Per MPI rank memory allocation (min/avg/max) = 3.625 | 3.625 | 3.626 Mbytes
Step Temp E_pair E_mol TotEng Press Volume Lx Ly Lz S/CPU 
    5000    313.53106    -10511.59            0   -9577.9483    7491.8585    788.90492    9.2400621    9.2400621    9.2400621            0 
    5100    298.72959   -10467.549            0   -9577.9835    -10439.04    790.45684     9.246117     9.246117     9.246117     29.20337 
    5200    291.18074   -10445.106            0   -9578.0195   -14785.231    791.60359    9.2505861    9.2505861    9.2505861    28.004468 
    5300    304.27578   -10484.869            0   -9578.7878    1709.3049    792.06424    9.2523802    9.2523802    9.2523802    29.394243 
    5400    300.35877   -10472.846            0   -9578.4293      502.665    792.22357    9.2530005    9.2530005    9.2530005    27.153106 
    5500    300.46644   -10471.781            0    -9577.043    -16440.09    792.01698    9.2521961    9.2521961    9.2521961    23.591077 
    5600    298.77776   -10465.038            0   -9575.3286   -3976.0773    791.34657    9.2495849    9.2495849    9.2495849    30.335583 
    5700    307.88751   -10491.298            0   -9574.4618   -17645.143    790.34993    9.2457002    9.2457002    9.2457002    29.801754 
    5800    297.26397   -10457.301            0   -9572.0996   -19123.546     789.0706    9.2407089    9.2407089    9.2407089    28.784968 
    5900    315.90806   -10513.528            0   -9572.8081    1973.8066     787.3207    9.2338729    9.2338729    9.2338729    29.350968 
    6000    303.56508   -10476.604            0   -9572.6395     9612.225    785.60048    9.2271429    9.2271429    9.2271429    27.955219 
Loop time of 35.4291 on 4 procs for 1000 steps with 1000 atoms

Performance: 2.439 ns/day, 9.841 hours/ns, 28.225 timesteps/s
85.3% CPU use with 4 MPI tasks x no OpenMP threads

MPI task timing breakdown:
Section |  min time  |  avg time  |  max time  |%varavg| %total
---------------------------------------------------------------
Pair    | 9.2772     | 9.4812     | 9.6192     |   4.7 | 26.76
Neigh   | 3.538      | 3.6181     | 3.7167     |   3.5 | 10.21
Comm    | 1.6076     | 1.8441     | 2.0817     |  14.5 |  5.21
Output  | 14.669     | 16.11      | 20.428     |  62.1 | 45.47
Modify  | 0.040704   | 4.3593     | 5.8011     | 119.4 | 12.30
Other   |            | 0.01634    |            |       |  0.05

Nlocal:    250 ave 251 max 249 min
Histogram: 1 0 0 0 0 2 0 0 0 1
Nghost:    2990.5 ave 3003 max 2978 min
Histogram: 1 1 0 0 0 0 0 0 1 1
Neighs:    0 ave 0 max 0 min
Histogram: 4 0 0 0 0 0 0 0 0 0
FullNghs:  75194.5 ave 75605 max 74994 min
Histogram: 1 2 0 0 0 0 0 0 0 1

Total # of neighbors = 300778
Ave neighs/atom = 300.778
Neighbor list builds = 1000
Dangerous builds not checked
Setting up Verlet run ...
  Unit style    : real
  Current step  : 6000
  Time step     : 1
Per MPI rank memory allocation (min/avg/max) = 3.625 | 3.625 | 3.626 Mbytes
Step Temp E_pair E_mol TotEng Press Volume Lx Ly Lz S/CPU 
    6000    303.56508   -10476.604            0   -9572.6395     9612.225    785.60048    9.2271429    9.2271429    9.2271429            0 
    6100    299.70955   -10466.535            0   -9574.0509    2020.1932    784.60715    9.2232522    9.2232522    9.2232522    25.467151 
    6200    313.68185   -10513.623            0   -9579.5325    4740.6012    784.01532    9.2209327    9.2209327    9.2209327    29.921354 
    6300    295.53102   -10464.951            0   -9584.9105    8477.8754    783.85797    9.2203157    9.2203157    9.2203157      25.7042 
    6400    315.01926   -10531.704            0   -9593.6302     21774.11    784.20836    9.2216894    9.2216894    9.2216894    30.326385 
    6500    291.99924   -10472.026            0   -9602.5026   -5069.1238     784.8171    9.2240748    9.2240748    9.2240748    25.359731 
    6600    308.31197    -10532.07            0   -9613.9695   -11215.414    785.05457    9.2250051    9.2250051    9.2250051    30.581579 
    6700    292.37379   -10493.793            0   -9623.1538    9366.6288    784.77615    9.2239144    9.2239144    9.2239144     28.00686 
    6800     289.7416   -10495.359            0   -9632.5578   -4188.9081    784.49834    9.2228259    9.2228259    9.2228259    27.705129 
    6900    296.58816   -10522.844            0   -9639.6549    7974.7476    784.11733    9.2213325    9.2213325    9.2213325    27.658354 
    7000     297.4745   -10531.143            0   -9645.3147    5822.3075    783.70669    9.2197225    9.2197225    9.2197225    28.181689 
Loop time of 36.0138 on 4 procs for 1000 steps with 1000 atoms

Performance: 2.399 ns/day, 10.004 hours/ns, 27.767 timesteps/s
85.3% CPU use with 4 MPI tasks x no OpenMP threads

MPI task timing breakdown:
Section |  min time  |  avg time  |  max time  |%varavg| %total
---------------------------------------------------------------
Pair    | 9.3113     | 9.5837     | 9.9597     |   7.8 | 26.61
Neigh   | 3.5137     | 3.6221     | 3.774      |   5.1 | 10.06
Comm    | 1.4561     | 1.9842     | 2.3649     |  24.0 |  5.51
Output  | 13.365     | 15.217     | 20.765     |  82.1 | 42.25
Modify  | 0.041867   | 5.5906     | 7.4423     | 135.5 | 15.52
Other   |            | 0.01627    |            |       |  0.05

Nlocal:    250 ave 253 max 244 min
Histogram: 1 0 0 0 0 0 0 1 1 1
Nghost:    3006.75 ave 3026 max 2980 min
Histogram: 1 0 0 0 0 0 2 0 0 1
Neighs:    0 ave 0 max 0 min
Histogram: 4 0 0 0 0 0 0 0 0 0
FullNghs:  75286.5 ave 76296 max 72888 min
Histogram: 1 0 0 0 0 0 0 0 1 2

Total # of neighbors = 301146
Ave neighs/atom = 301.146
Neighbor list builds = 1000
Dangerous builds not checked
Setting up Verlet run ...
  Unit style    : real
  Current step  : 7000
  Time step     : 1
Per MPI rank memory allocation (min/avg/max) = 3.625 | 3.625 | 3.626 Mbytes
Step Temp E_pair E_mol TotEng Press Volume Lx Ly Lz S/CPU 
    7000     297.4745   -10531.143            0   -9645.3147    5822.3075    783.70669    9.2197225    9.2197225    9.2197225            0 
    7100    299.74338   -10540.587            0   -9648.0025    1446.5221    783.33104    9.2182492    9.2182492    9.2182492    29.168882 
    7200    307.02584   -10563.744            0   -9649.4739    5623.1495    782.90783    9.2165888    9.2165888    9.2165888    25.852107 
    7300    291.58333   -10516.878            0   -9648.5922   -17682.615     782.6682    9.2156484    9.2156484    9.2156484    30.232173 
    7400    294.97161   -10527.848            0   -9649.4725   -7105.4176    781.86192    9.2124827    9.2124827    9.2124827    28.144825 
    7500    296.13669   -10529.768            0   -9647.9239    10671.733    780.84607    9.2084912    9.2084912    9.2084912    23.726207 
    7600     302.3733   -10545.528            0   -9645.1115    10253.514     780.1268    9.2056628    9.2056628    9.2056628    25.823741 
    7700    298.55846   -10529.428            0   -9640.3718   -3132.6912    779.78589    9.2043217    9.2043217    9.2043217    32.914682 
    7800    296.54669   -10516.078            0   -9633.0128    1580.5645    779.81479    9.2044354    9.2044354    9.2044354    28.592076 
    7900    297.23364   -10508.607            0   -9623.4955   -4888.5161    780.30532     9.206365     9.206365     9.206365    21.402953 
    8000    305.56275     -10518.7            0   -9608.7864     4361.559    780.76506    9.2081727    9.2081727    9.2081727     31.87823 
Loop time of 36.5893 on 4 procs for 1000 steps with 1000 atoms

Performance: 2.361 ns/day, 10.164 hours/ns, 27.330 timesteps/s
85.2% CPU use with 4 MPI tasks x no OpenMP threads

MPI task timing breakdown:
Section |  min time  |  avg time  |  max time  |%varavg| %total
---------------------------------------------------------------
Pair    | 9.3188     | 9.7109     | 10.281     |  11.7 | 26.54
Neigh   | 3.5513     | 3.6376     | 3.8422     |   6.3 |  9.94
Comm    | 1.1736     | 1.9494     | 2.4218     |  34.4 |  5.33
Output  | 14.618     | 16.273     | 21.231     |  71.0 | 44.48
Modify  | 0.043634   | 5.0018     | 6.6565     | 128.0 | 13.67
Other   |            | 0.01642    |            |       |  0.04

Nlocal:    250 ave 257 max 245 min
Histogram: 2 0 0 0 0 0 1 0 0 1
Nghost:    3036 ave 3063 max 3010 min
Histogram: 1 1 0 0 0 0 0 0 1 1
Neighs:    0 ave 0 max 0 min
Histogram: 4 0 0 0 0 0 0 0 0 0
FullNghs:  75634.5 ave 77566 max 74001 min
Histogram: 2 0 0 0 0 0 0 1 0 1

Total # of neighbors = 302538
Ave neighs/atom = 302.538
Neighbor list builds = 1000
Dangerous builds not checked
Setting up Verlet run ...
  Unit style    : real
  Current step  : 8000
  Time step     : 1
Per MPI rank memory allocation (min/avg/max) = 3.625 | 3.625 | 3.626 Mbytes
Step Temp E_pair E_mol TotEng Press Volume Lx Ly Lz S/CPU 
    8000    305.56275     -10518.7            0   -9608.7864     4361.559    780.76506    9.2081727    9.2081727    9.2081727            0 
    8100     306.2037   -10503.103            0   -9591.2802    8108.8556    781.46074    9.2109068    9.2109068    9.2109068    28.858603 
    8200    302.76735   -10475.897            0   -9574.3076    1826.9594    782.72481    9.2158706    9.2158706    9.2158706    29.870206 
    8300    295.88085   -10442.828            0   -9561.7455    8030.8994    783.95208    9.2206847    9.2206847    9.2206847    24.369881 
    8400    311.93198   -10484.987            0   -9556.1071   -8471.4634    784.90491    9.2244189    9.2244189    9.2244189    27.236953 
    8500    297.87788   -10438.907            0   -9551.8771    7249.8272    785.57457    9.2270414    9.2270414    9.2270414    34.097013 
    8600    311.92882     -10480.8            0   -9551.9295   -7708.4493    786.35253    9.2300863    9.2300863    9.2300863    27.296002 
    8700    310.43532   -10477.738            0   -9553.3148    -13782.39    787.16296    9.2332561    9.2332561    9.2332561    30.942793 
    8800    300.29559   -10448.667            0   -9554.4384   -2249.6618     787.4277    9.2342911    9.2342911    9.2342911    30.886279 
    8900    312.22036   -10487.826            0   -9558.0868   -19563.567    787.03756    9.2327658    9.2327658    9.2327658    23.043534 
    9000    312.73497   -10494.135            0   -9562.8634   -4315.2029    786.15056     9.229296     9.229296     9.229296    34.459309 
Loop time of 34.8953 on 4 procs for 1000 steps with 1000 atoms

Performance: 2.476 ns/day, 9.693 hours/ns, 28.657 timesteps/s
85.6% CPU use with 4 MPI tasks x no OpenMP threads

MPI task timing breakdown:
Section |  min time  |  avg time  |  max time  |%varavg| %total
---------------------------------------------------------------
Pair    | 9.3452     | 9.5019     | 9.7113     |   4.6 | 27.23
Neigh   | 3.5291     | 3.5926     | 3.6962     |   3.5 | 10.30
Comm    | 1.6451     | 1.9581     | 2.1779     |  14.8 |  5.61
Output  | 13.587     | 15.138     | 19.782     |  68.9 | 43.38
Modify  | 0.044153   | 4.689      | 6.2394     | 123.8 | 13.44
Other   |            | 0.01623    |            |       |  0.05

Nlocal:    250 ave 253 max 246 min
Histogram: 1 0 0 0 1 0 0 0 1 1
Nghost:    3006.75 ave 3012 max 3003 min
Histogram: 1 1 0 0 0 1 0 0 0 1
Neighs:    0 ave 0 max 0 min
Histogram: 4 0 0 0 0 0 0 0 0 0
FullNghs:  75161.5 ave 76331 max 73837 min
Histogram: 1 0 0 0 1 0 0 1 0 1

Total # of neighbors = 300646
Ave neighs/atom = 300.646
Neighbor list builds = 1000
Dangerous builds not checked
Setting up Verlet run ...
  Unit style    : real
  Current step  : 9000
  Time step     : 1
Per MPI rank memory allocation (min/avg/max) = 3.625 | 3.625 | 3.626 Mbytes
Step Temp E_pair E_mol TotEng Press Volume Lx Ly Lz S/CPU 
    9000    312.73497   -10494.135            0   -9562.8634   -4315.2029    786.15056     9.229296     9.229296     9.229296            0 
    9100    299.82036   -10460.692            0   -9567.8787    12156.934    784.92564    9.2245001    9.2245001    9.2245001    23.859209 
    9200    298.69889   -10463.858            0    -9574.384   -1018.9503    783.94967    9.2206752    9.2206752    9.2206752    31.000881 
    9300    300.54125   -10478.318            0   -9583.3572     10790.25    783.32356    9.2182199    9.2182199    9.2182199     28.73202 
    9400    304.02164   -10498.544            0   -9593.2195    3144.2912     782.9526    9.2167645    9.2167645    9.2167645    26.667614 
    9500    298.90701   -10492.366            0   -9602.2716    6824.0018    782.74323    9.2159429    9.2159429    9.2159429    30.889851 
    9600    298.71516    -10500.24            0   -9610.7169   -1761.9047    782.71134    9.2158177    9.2158177    9.2158177    24.977363 
    9700    297.15754    -10502.23            0   -9617.3456   -8446.3931    782.50922    9.2150244    9.2150244    9.2150244    29.286469 
    9800    292.92457   -10494.921            0   -9622.6417   -6033.2105    781.76576    9.2121051    9.2121051    9.2121051    31.982972 
    9900    300.97086   -10523.643            0   -9627.4033    3821.6333    780.41163    9.2067831    9.2067831    9.2067831    28.304299 
   10000    293.32068   -10504.326            0   -9630.8667   -106.63871    778.97588    9.2011336    9.2011336    9.2011336    29.884454 
Loop time of 35.3087 on 4 procs for 1000 steps with 1000 atoms

Performance: 2.447 ns/day, 9.808 hours/ns, 28.322 timesteps/s
85.5% CPU use with 4 MPI tasks x no OpenMP threads

MPI task timing breakdown:
Section |  min time  |  avg time  |  max time  |%varavg| %total
---------------------------------------------------------------
Pair    | 9.3601     | 9.6075     | 10.087     |   9.1 | 27.21
Neigh   | 3.5173     | 3.608      | 3.7404     |   4.3 | 10.22
Comm    | 1.3187     | 1.9311     | 2.2688     |  26.1 |  5.47
Output  | 13.503     | 15.155     | 20.104     |  73.4 | 42.92
Modify  | 0.041518   | 4.991      | 6.6431     | 127.9 | 14.14
Other   |            | 0.01631    |            |       |  0.05

Nlocal:    250 ave 256 max 243 min
Histogram: 1 0 0 0 1 0 1 0 0 1
Nghost:    3000 ave 3018 max 2981 min
Histogram: 1 1 0 0 0 0 0 0 0 2
Neighs:    0 ave 0 max 0 min
Histogram: 4 0 0 0 0 0 0 0 0 0
FullNghs:  75753 ave 78135 max 73166 min
Histogram: 1 0 0 0 0 2 0 0 0 1

Total # of neighbors = 303012
Ave neighs/atom = 303.012
Neighbor list builds = 1000
Dangerous builds not checked
Setting up Verlet run ...
  Unit style    : real
  Current step  : 10000
  Time step     : 1
Per MPI rank memory allocation (min/avg/max) = 3.625 | 3.625 | 3.626 Mbytes
Step Temp E_pair E_mol TotEng Press Volume Lx Ly Lz S/CPU 
   10000    293.32068   -10504.326            0   -9630.8667   -106.63871    778.97588    9.2011336    9.2011336    9.2011336            0 
   10100     299.1058   -10523.772            0   -9633.0864    8915.0045     777.6353    9.1958523    9.1958523    9.1958523    30.088104 
   10200    282.95896   -10475.072            0   -9632.4689    6529.1453    776.69406    9.1921407    9.1921407    9.1921407    29.221685 
   10300    296.21654   -10514.971            0   -9632.8889   -1363.9845    776.28124    9.1905118    9.1905118    9.1905118    26.791318 
   10400    303.57581    -10536.83            0   -9632.8329    10369.254    775.92843    9.1891193    9.1891193    9.1891193    29.549764 
   10500    304.73169   -10540.702            0   -9633.2628     17188.78    776.01723    9.1894698    9.1894698    9.1894698    28.632953 
   10600    293.35397   -10504.007            0   -9630.4495    889.98455    776.82394     9.192653     9.192653     9.192653    26.781771 
   10700    302.82304   -10530.276            0   -9628.5203   -6103.0487    777.88408    9.1968329    9.1968329    9.1968329    25.755835 
   10800     295.3195    -10504.14            0   -9624.7293   -3505.1776    778.90586    9.2008579    9.2008579    9.2008579    28.416227 
   10900    302.92597   -10523.197            0   -9621.1356    5665.3477    779.13465    9.2017587    9.2017587    9.2017587    30.133794 
   11000    302.96427   -10519.754            0   -9617.5777   -2971.3713    779.19205    9.2019847    9.2019847    9.2019847    31.108225 
Loop time of 35.0236 on 4 procs for 1000 steps with 1000 atoms

Performance: 2.467 ns/day, 9.729 hours/ns, 28.552 timesteps/s
85.7% CPU use with 4 MPI tasks x no OpenMP threads

MPI task timing breakdown:
Section |  min time  |  avg time  |  max time  |%varavg| %total
---------------------------------------------------------------
Pair    | 9.5241     | 9.7798     | 10.187     |   8.0 | 27.92
Neigh   | 3.5369     | 3.6266     | 3.7422     |   3.9 | 10.35
Comm    | 1.4086     | 1.9311     | 2.2775     |  23.2 |  5.51
Output  | 13.899     | 15.332     | 19.626     |  63.3 | 43.78
Modify  | 0.043225   | 4.3377     | 5.7712     | 119.0 | 12.38
Other   |            | 0.01647    |            |       |  0.05

Nlocal:    250 ave 254 max 247 min
Histogram: 1 1 0 0 0 1 0 0 0 1
Nghost:    3011 ave 3034 max 2982 min
Histogram: 1 0 0 0 1 0 0 1 0 1
Neighs:    0 ave 0 max 0 min
Histogram: 4 0 0 0 0 0 0 0 0 0
FullNghs:  75783 ave 77145 max 74692 min
Histogram: 1 1 0 0 0 0 1 0 0 1

Total # of neighbors = 303132
Ave neighs/atom = 303.132
Neighbor list builds = 1000
Dangerous builds not checked
Setting up Verlet run ...
  Unit style    : real
  Current step  : 11000
  Time step     : 1
Per MPI rank memory allocation (min/avg/max) = 3.625 | 3.625 | 3.626 Mbytes
Step Temp E_pair E_mol TotEng Press Volume Lx Ly Lz S/CPU 
   11000    302.96427   -10519.754            0   -9617.5777   -2971.3713    779.19205    9.2019847    9.2019847    9.2019847            0 
   11100    308.60748   -10529.466            0   -9610.4854    2095.1154     779.5183    9.2032688    9.2032688    9.2032688    26.796688 
   11200    301.81768   -10498.311            0   -9599.5495    2130.4363    779.91185    9.2048173    9.2048173    9.2048173    31.695329 
   11300    301.97806   -10482.713            0    -9583.474    8229.5336     780.3106    9.2063857    9.2063857    9.2063857    29.436486 
   11400    305.21118   -10473.588            0   -9564.7216   -310.34004    780.88205    9.2086326    9.2086326    9.2086326    32.821201 
   11500      307.805     -10466.3            0   -9549.7088   -9066.1749    781.33157    9.2103993    9.2103993    9.2103993     26.36277 
   11600    315.37325   -10477.998            0   -9538.8707    4376.8518     781.5988    9.2114492    9.2114492    9.2114492    31.465758 
   11700    305.79054   -10442.236            0   -9531.6441   -769.66196    782.13903     9.213571     9.213571     9.213571    30.214241 
   11800    307.09543   -10442.137            0   -9527.6591   -140.89455    783.16529     9.217599     9.217599     9.217599     30.47705 
   11900    307.79221   -10443.722            0   -9527.1692   -5174.5111    784.42947     9.222556     9.222556     9.222556    23.539808 
   12000    302.17078   -10427.665            0   -9527.8517   -1582.5754    785.75109    9.2277325    9.2277325    9.2277325    31.344439 
Loop time of 34.3314 on 4 procs for 1000 steps with 1000 atoms

Performance: 2.517 ns/day, 9.537 hours/ns, 29.128 timesteps/s
85.9% CPU use with 4 MPI tasks x no OpenMP threads

MPI task timing breakdown:
Section |  min time  |  avg time  |  max time  |%varavg| %total
---------------------------------------------------------------
Pair    | 9.4        | 9.6331     | 10.037     |   7.8 | 28.06
Neigh   | 3.5288     | 3.5992     | 3.7748     |   5.4 | 10.48
Comm    | 1.3879     | 1.9682     | 2.2726     |  24.4 |  5.73
Output  | 13.061     | 14.564     | 19.07      |  68.2 | 42.42
Modify  | 0.044838   | 4.5504     | 6.0544     | 121.9 | 13.25
Other   |            | 0.01625    |            |       |  0.05

Nlocal:    250 ave 252 max 247 min
Histogram: 1 0 0 0 1 0 0 0 0 2
Nghost:    3025.5 ave 3038 max 3015 min
Histogram: 1 0 1 0 0 0 1 0 0 1
Neighs:    0 ave 0 max 0 min
Histogram: 4 0 0 0 0 0 0 0 0 0
FullNghs:  75063.5 ave 76165 max 73845 min
Histogram: 1 0 0 1 0 0 0 1 0 1

Total # of neighbors = 300254
Ave neighs/atom = 300.254
Neighbor list builds = 1000
Dangerous builds not checked
Setting up Verlet run ...
  Unit style    : real
  Current step  : 12000
  Time step     : 1
Per MPI rank memory allocation (min/avg/max) = 3.625 | 3.625 | 3.626 Mbytes
Step Temp E_pair E_mol TotEng Press Volume Lx Ly Lz S/CPU 
   12000    302.17078   -10427.665            0   -9527.8517   -1582.5754    785.75109    9.2277325    9.2277325    9.2277325            0 
   12100    303.06906   -10434.847            0   -9532.3591   -4300.3985    787.14146    9.2331721    9.2331721    9.2331721    33.143497 
   12200    306.77802   -10451.147            0   -9537.6143    1385.3882    788.71239    9.2393103    9.2393103    9.2393103    32.075503 
   12300    294.12212   -10419.654            0   -9543.8087   -205.28597    790.18787    9.2450682    9.2450682    9.2450682    24.451206 
   12400     311.6745   -10479.442            0   -9551.3285    2945.2224    791.52501    9.2502801    9.2502801    9.2502801    31.235217 
   12500    303.15935   -10460.495            0   -9557.7382   -4170.9229    792.57815    9.2543808    9.2543808    9.2543808     28.74559 
   12600    291.85405   -10432.909            0   -9563.8176       -23065    793.00221     9.256031     9.256031     9.256031    29.535418 
   12700    300.57544   -10468.409            0   -9573.3466   -17117.355     792.1039    9.2525346    9.2525346    9.2525346    31.482096 
   12800    311.02923   -10507.764            0   -9581.5717   -19246.349    789.80453     9.243573     9.243573     9.243573     25.63918 
   12900     305.2366   -10496.878            0   -9587.9353   -12085.901    786.52925    9.2307777    9.2307777    9.2307777    34.119289 
   13000    296.19928   -10477.963            0   -9595.9318    19.215401     782.5897    9.2153403    9.2153403    9.2153403     25.82653 
Loop time of 34.1703 on 4 procs for 1000 steps with 1000 atoms

Performance: 2.529 ns/day, 9.492 hours/ns, 29.265 timesteps/s
85.7% CPU use with 4 MPI tasks x no OpenMP threads

MPI task timing breakdown:
Section |  min time  |  avg time  |  max time  |%varavg| %total
---------------------------------------------------------------
Pair    | 9.2419     | 9.4684     | 9.615      |   4.9 | 27.71
Neigh   | 3.5307     | 3.6076     | 3.6898     |   3.0 | 10.56
Comm    | 1.642      | 1.8707     | 2.1739     |  14.9 |  5.47
Output  | 13.027     | 14.561     | 19.159     |  69.6 | 42.61
Modify  | 0.047933   | 4.6459     | 6.1805     | 123.2 | 13.60
Other   |            | 0.01644    |            |       |  0.05

Nlocal:    250 ave 254 max 246 min
Histogram: 1 0 0 1 0 0 1 0 0 1
Nghost:    3011 ave 3040 max 2985 min
Histogram: 1 0 1 0 0 0 1 0 0 1
Neighs:    0 ave 0 max 0 min
Histogram: 4 0 0 0 0 0 0 0 0 0
FullNghs:  75461.5 ave 76953 max 73758 min
Histogram: 1 0 1 0 0 0 0 0 1 1

Total # of neighbors = 301846
Ave neighs/atom = 301.846
Neighbor list builds = 1000
Dangerous builds not checked
Setting up Verlet run ...
  Unit style    : real
  Current step  : 13000
  Time step     : 1
Per MPI rank memory allocation (min/avg/max) = 3.625 | 3.625 | 3.626 Mbytes
Step Temp E_pair E_mol TotEng Press Volume Lx Ly Lz S/CPU 
   13000    296.19928   -10477.963            0   -9595.9318    19.215401     782.5897    9.2153403    9.2153403    9.2153403            0 
   13100    298.70956    -10492.36            0   -9602.8539   -192.49064    778.43969     9.199022     9.199022     9.199022    31.839799 
   13200    303.24516     -10512.3            0   -9609.2877    20436.546    774.66358    9.1841234    9.1841234    9.1841234    26.818967 
   13300    300.55318    -10509.05            0   -9614.0537    32182.302    772.17935    9.1742956    9.1742956    9.1742956    21.667633 
   13400     305.2536   -10526.925            0    -9617.932    45551.281    771.70972    9.1724353    9.1724353    9.1724353    24.026398 
   13500    304.89744   -10529.338            0   -9621.4059    18378.917    773.56104    9.1797643    9.1797643    9.1797643    28.155773 
   13600    292.87371   -10496.913            0   -9624.7852    8725.1519     776.5558    9.1915952    9.1915952    9.1915952    25.320284 
   13700     301.4582   -10525.451            0   -9627.7597    11938.062     779.9659    9.2050299    9.2050299    9.2050299    31.050029 
   13800    298.81094   -10519.937            0   -9630.1289     6498.936    783.76594    9.2199549    9.2199549    9.2199549    29.228254 
   13900    295.07195   -10511.073            0   -9632.3995    -15752.67    787.86445    9.2359981    9.2359981    9.2359981    30.801918 
   14000    306.65993   -10546.648            0   -9633.4672    -7173.495     791.4079    9.2498238    9.2498238    9.2498238    27.469191 
Loop time of 36.6768 on 4 procs for 1000 steps with 1000 atoms

Performance: 2.356 ns/day, 10.188 hours/ns, 27.265 timesteps/s
85.2% CPU use with 4 MPI tasks x no OpenMP threads

MPI task timing breakdown:
Section |  min time  |  avg time  |  max time  |%varavg| %total
---------------------------------------------------------------
Pair    | 9.6118     | 9.8789     | 10.024     |   5.1 | 26.94
Neigh   | 3.6159     | 3.6814     | 3.7597     |   2.7 | 10.04
Comm    | 1.5938     | 1.8171     | 2.1492     |  15.3 |  4.95
Output  | 13.968     | 15.787     | 21.239     |  79.2 | 43.04
Modify  | 0.04287    | 5.4955     | 7.3152     | 134.3 | 14.98
Other   |            | 0.01681    |            |       |  0.05

Nlocal:    250 ave 259 max 245 min
Histogram: 1 0 2 0 0 0 0 0 0 1
Nghost:    2984.75 ave 3007 max 2957 min
Histogram: 1 0 0 0 0 1 0 1 0 1
Neighs:    0 ave 0 max 0 min
Histogram: 4 0 0 0 0 0 0 0 0 0
FullNghs:  74609.5 ave 77555 max 72666 min
Histogram: 1 0 1 1 0 0 0 0 0 1

Total # of neighbors = 298438
Ave neighs/atom = 298.438
Neighbor list builds = 1000
Dangerous builds not checked
Setting up Verlet run ...
  Unit style    : real
  Current step  : 14000
  Time step     : 1
Per MPI rank memory allocation (min/avg/max) = 3.625 | 3.625 | 3.626 Mbytes
Step Temp E_pair E_mol TotEng Press Volume Lx Ly Lz S/CPU 
   14000    306.65993   -10546.648            0   -9633.4672    -7173.495     791.4079    9.2498238    9.2498238    9.2498238            0 
   14100     295.9954   -10515.064            0   -9633.6405   -10516.356    794.07701    9.2602108    9.2602108    9.2602108    28.508305 
   14200    300.24882   -10526.562            0   -9632.4728   -21895.687    795.69036     9.266478     9.266478     9.266478    31.748458 
   14300    292.69719   -10502.544            0   -9630.9415   -9944.8814    796.31368    9.2688971    9.2688971    9.2688971    28.153565 
   14400    289.02384   -10489.205            0   -9628.5409   -23764.602    795.78366    9.2668402    9.2668402    9.2668402    30.552602 
   14500    298.03386   -10512.992            0   -9625.4976   -24825.417    794.16178    9.2605403    9.2605403    9.2605403    26.620162 
   14600    297.46233   -10505.963            0   -9620.1714   -9272.7581    791.51404    9.2502373    9.2502373    9.2502373    31.122057 
   14700    297.03013   -10496.576            0   -9612.0708   -11086.742    788.44613    9.2382705    9.2382705    9.2382705    29.041192 
   14800    310.82641   -10528.973            0   -9603.3846    7938.4718    785.11742    9.2252513    9.2252513    9.2252513    25.108562 
   14900    300.82949   -10488.702            0   -9592.8827    12159.445    782.21083    9.2138529    9.2138529    9.2138529    31.000991 
   15000    305.06696   -10491.189            0   -9582.7512   -2666.0823    779.88611     9.204716     9.204716     9.204716    24.169642 
Loop time of 35.2415 on 4 procs for 1000 steps with 1000 atoms

Performance: 2.452 ns/day, 9.789 hours/ns, 28.376 timesteps/s
85.4% CPU use with 4 MPI tasks x no OpenMP threads

MPI task timing breakdown:
Section |  min time  |  avg time  |  max time  |%varavg| %total
---------------------------------------------------------------
Pair    | 9.2192     | 9.4864     | 9.9273     |   9.1 | 26.92
Neigh   | 3.534      | 3.6243     | 3.7981     |   5.6 | 10.28
Comm    | 1.2019     | 1.8166     | 2.1689     |  28.7 |  5.15
Output  | 13.727     | 15.36      | 20.253     |  72.1 | 43.59
Modify  | 0.04395    | 4.9375     | 6.5708     | 127.1 | 14.01
Other   |            | 0.01638    |            |       |  0.05

Nlocal:    250 ave 257 max 240 min
Histogram: 1 0 0 0 0 1 0 0 1 1
Nghost:    3017.5 ave 3053 max 2985 min
Histogram: 1 0 0 0 1 1 0 0 0 1
Neighs:    0 ave 0 max 0 min
Histogram: 4 0 0 0 0 0 0 0 0 0
FullNghs:  75689.5 ave 77960 max 71985 min
Histogram: 1 0 0 0 0 0 1 0 1 1

Total # of neighbors = 302758
Ave neighs/atom = 302.758
Neighbor list builds = 1000
Dangerous builds not checked
Setting up Verlet run ...
  Unit style    : real
  Current step  : 15000
  Time step     : 1
Per MPI rank memory allocation (min/avg/max) = 3.625 | 3.625 | 3.626 Mbytes
Step Temp E_pair E_mol TotEng Press Volume Lx Ly Lz S/CPU 
   15000    305.06696   -10491.189            0   -9582.7512   -2666.0823    779.88611     9.204716     9.204716     9.204716            0 
   15100     302.5137   -10472.777            0   -9571.9424   -3310.4304    777.85451    9.1967164    9.1967164    9.1967164    29.598366 
   15200    303.46709   -10466.005            0   -9562.3316    24669.952    776.68639    9.1921104    9.1921104    9.1921104    26.689346 
   15300    309.99374   -10477.731            0   -9554.6226    17470.383    776.97296    9.1932408    9.1932408    9.1932408    30.511151 
   15400    305.64727   -10460.157            0   -9549.9915    4379.2604    778.15926    9.1979172    9.1979172    9.1979172    31.824259 
   15500    299.57309   -10439.885            0   -9547.8078    14453.695    779.76046    9.2042217    9.2042217    9.2042217    25.745974 
   15600    315.10827   -10486.769            0   -9548.4305    -2761.549    781.99122    9.2129906    9.2129906    9.2129906     29.68207 
   15700    312.84751   -10482.295            0   -9550.6885    3505.2047    784.21552    9.2217174    9.2217174    9.2217174      26.8782 
   15800    302.63612    -10454.74            0   -9553.5412   -12376.958    786.39792    9.2302639    9.2302639    9.2302639     27.60605 
   15900    311.25239   -10489.874            0   -9563.0173   -13252.392    788.28998    9.2376606    9.2376606    9.2376606    29.972993 
   16000    305.72755    -10488.84            0   -9578.4353   -10072.055    789.62995    9.2428919    9.2428919    9.2428919      26.8551 
Loop time of 35.2012 on 4 procs for 1000 steps with 1000 atoms

Performance: 2.454 ns/day, 9.778 hours/ns, 28.408 timesteps/s
85.7% CPU use with 4 MPI tasks x no OpenMP threads

MPI task timing breakdown:
Section |  min time  |  avg time  |  max time  |%varavg| %total
---------------------------------------------------------------
Pair    | 9.3984     | 9.7008     | 10.155     |  10.0 | 27.56
Neigh   | 3.5311     | 3.6347     | 3.7773     |   5.2 | 10.33
Comm    | 1.4547     | 2.0511     | 2.4359     |  28.6 |  5.83
Output  | 13.514     | 15.076     | 19.756     |  69.6 | 42.83
Modify  | 0.041116   | 4.7223     | 6.2851     | 124.4 | 13.42
Other   |            | 0.01638    |            |       |  0.05

Nlocal:    250 ave 256 max 243 min
Histogram: 1 0 0 1 0 0 0 0 1 1
Nghost:    2999.25 ave 3020 max 2980 min
Histogram: 1 0 0 1 0 0 1 0 0 1
Neighs:    0 ave 0 max 0 min
Histogram: 4 0 0 0 0 0 0 0 0 0
FullNghs:  74783 ave 76667 max 72094 min
Histogram: 1 0 0 0 1 0 0 0 0 2

Total # of neighbors = 299132
Ave neighs/atom = 299.132
Neighbor list builds = 1000
Dangerous builds not checked
Setting up Verlet run ...
  Unit style    : real
  Current step  : 16000
  Time step     : 1
Per MPI rank memory allocation (min/avg/max) = 3.625 | 3.625 | 3.626 Mbytes
Step Temp E_pair E_mol TotEng Press Volume Lx Ly Lz S/CPU 
   16000    305.72755    -10488.84            0   -9578.4353   -10072.055    789.62995    9.2428919    9.2428919    9.2428919            0 
   16100    298.79173    -10491.12            0   -9601.3692   -19873.863    790.30784     9.245536     9.245536     9.245536    29.704327 
   16200    292.44611   -10494.619            0   -9623.7643   -18991.419    790.06522    9.2445899    9.2445899    9.2445899    28.056744 
   16300    292.67539   -10508.812            0   -9637.2745   -10332.033    788.85628    9.2398721    9.2398721    9.2398721    29.314633 
   16400    287.33178   -10499.743            0    -9644.118    14255.345    786.95273    9.2324341    9.2324341    9.2324341    26.850873 
   16500    291.55327    -10515.37            0   -9647.1742    2417.2697    784.92019    9.2244787    9.2244787    9.2244787    27.812305 
   16600    291.43317   -10516.153            0   -9648.3143    3251.2986    783.02658    9.2170548    9.2170548    9.2170548     26.47623 
   16700    290.89274    -10513.63            0   -9647.4015    17310.354    781.82046    9.2123199    9.2123199    9.2123199    31.475461 
   16800    295.12622   -10523.948            0   -9645.1121   -6208.0475     781.3291    9.2103896    9.2103896    9.2103896    26.741091 
   16900    301.21376   -10539.214            0    -9642.251     8262.656    780.74836    9.2081071    9.2081071    9.2081071    34.239943 
   17000    301.35177   -10537.154            0   -9639.7796   -1665.9358    780.35593     9.206564     9.206564     9.206564    27.761414 
Loop time of 34.8781 on 4 procs for 1000 steps with 1000 atoms

Performance: 2.477 ns/day, 9.688 hours/ns, 28.671 timesteps/s
85.6% CPU use with 4 MPI tasks x no OpenMP threads

MPI task timing breakdown:
Section |  min time  |  avg time  |  max time  |%varavg| %total
---------------------------------------------------------------
Pair    | 8.9311     | 9.5653     | 10.054     |  13.1 | 27.42
Neigh   | 3.4306     | 3.6223     | 3.7891     |   6.8 | 10.39
Comm    | 1.2113     | 1.8671     | 2.6929     |  39.1 |  5.35
Output  | 13.746     | 15.251     | 19.761     |  66.7 | 43.73
Modify  | 0.044848   | 4.5556     | 6.0615     | 122.0 | 13.06
Other   |            | 0.01637    |            |       |  0.05

Nlocal:    250 ave 256 max 244 min
Histogram: 2 0 0 0 0 0 0 0 0 2
Nghost:    3033 ave 3057 max 3017 min
Histogram: 2 0 0 0 0 1 0 0 0 1
Neighs:    0 ave 0 max 0 min
Histogram: 4 0 0 0 0 0 0 0 0 0
FullNghs:  75694 ave 77863 max 73644 min
Histogram: 2 0 0 0 0 0 0 0 1 1

Total # of neighbors = 302776
Ave neighs/atom = 302.776
Neighbor list builds = 1000
Dangerous builds not checked
Setting up Verlet run ...
  Unit style    : real
  Current step  : 17000
  Time step     : 1
Per MPI rank memory allocation (min/avg/max) = 3.625 | 3.625 | 3.626 Mbytes
Step Temp E_pair E_mol TotEng Press Volume Lx Ly Lz S/CPU 
   17000    301.35177   -10537.154            0   -9639.7796   -1665.9358    780.35593     9.206564     9.206564     9.206564            0 
   17100    301.50693   -10534.491            0   -9636.6554    19952.632    780.01081    9.2052066    9.2052066    9.2052066    32.278934 
   17200    303.05846   -10537.397            0   -9634.9403    7902.6058    780.40406    9.2067533    9.2067533    9.2067533    30.614378 
   17300    298.53302   -10519.325            0   -9630.3442    19866.182    781.37955    9.2105878    9.2105878    9.2105878    29.731012 
   17400    286.40634   -10476.954            0   -9624.0846    9985.3647    782.86305    9.2164131    9.2164131    9.2164131     31.92793 
   17500    293.41129   -10493.096            0   -9619.3672   -11289.607    785.06211    9.2250346    9.2250346    9.2250346     27.49086 
   17600    299.77282   -10504.221            0   -9611.5488   -8392.1687    786.64315    9.2312233    9.2312233    9.2312233    29.482725 
   17700    292.34637   -10473.852            0   -9603.2943   -13912.098    787.23105    9.2335224    9.2335224    9.2335224    32.007571 
   17800    308.64499   -10512.927            0   -9593.8353   -4203.2255    787.20955    9.2334383    9.2334383    9.2334383    30.095377 
   17900    309.82104   -10506.847            0    -9584.253   -1987.0736    786.65509      9.23127      9.23127      9.23127    26.198314 
   18000    309.12537   -10495.731            0   -9575.2081    -6497.157     785.6344    9.2272757    9.2272757    9.2272757    24.903917 
Loop time of 34.1689 on 4 procs for 1000 steps with 1000 atoms

Performance: 2.529 ns/day, 9.491 hours/ns, 29.266 timesteps/s
85.8% CPU use with 4 MPI tasks x no OpenMP threads

MPI task timing breakdown:
Section |  min time  |  avg time  |  max time  |%varavg| %total
---------------------------------------------------------------
Pair    | 9.0019     | 9.5788     | 10.151     |  13.3 | 28.03
Neigh   | 3.4616     | 3.611      | 3.8119     |   6.8 | 10.57
Comm    | 1.2247     | 1.9983     | 2.7242     |  38.2 |  5.85
Output  | 12.766     | 14.306     | 18.922     |  70.5 | 41.87
Modify  | 0.042123   | 4.6581     | 6.1989     | 123.5 | 13.63
Other   |            | 0.01627    |            |       |  0.05

Nlocal:    250 ave 255 max 246 min
Histogram: 1 1 0 0 0 0 1 0 0 1
Nghost:    2991.75 ave 3010 max 2978 min
Histogram: 1 1 0 0 0 1 0 0 0 1
Neighs:    0 ave 0 max 0 min
Histogram: 4 0 0 0 0 0 0 0 0 0
FullNghs:  75145.5 ave 76725 max 73453 min
Histogram: 1 0 0 1 0 0 0 1 0 1

Total # of neighbors = 300582
Ave neighs/atom = 300.582
Neighbor list builds = 1000
Dangerous builds not checked
Setting up Verlet run ...
  Unit style    : real
  Current step  : 18000
  Time step     : 1
Per MPI rank memory allocation (min/avg/max) = 3.625 | 3.625 | 3.626 Mbytes
Step Temp E_pair E_mol TotEng Press Volume Lx Ly Lz S/CPU 
   18000    309.12537   -10495.731            0   -9575.2081    -6497.157     785.6344    9.2272757    9.2272757    9.2272757            0 
   18100    317.41021   -10513.861            0   -9568.6675    3041.6211    784.13434    9.2213992    9.2213992    9.2213992    27.730956 
   18200    304.48568   -10469.203            0   -9562.4962    10228.193    782.43766    9.2147434    9.2147434    9.2147434    31.903731 
   18300    316.20261   -10501.659            0   -9560.0613    3013.6662    781.44075    9.2108283    9.2108283    9.2108283    27.906068 
   18400     299.4892    -10449.18            0   -9557.3525    17634.627    781.15312     9.209698     9.209698     9.209698    32.750955 
   18500    302.45153    -10459.12            0   -9558.4712    10861.045    781.59089    9.2114181    9.2114181    9.2114181    24.553416 
   18600    302.56577   -10460.621            0   -9559.6315    10582.689    783.07046     9.217227     9.217227     9.217227    29.411485 
   18700    306.36619   -10473.933            0   -9561.6272   -8917.7711    785.24166    9.2257379    9.2257379    9.2257379     32.01179 
   18800    305.09449   -10473.242            0   -9564.7231   -17330.687      786.971    9.2325055    9.2325055    9.2325055    30.151737 
   18900    299.55142    -10459.56            0   -9567.5473   -4452.4753    787.57714    9.2348753    9.2348753    9.2348753    27.481549 
   19000    298.32923   -10460.847            0   -9572.4738   -8454.9753    787.35846    9.2340205    9.2340205    9.2340205    31.131117 
Loop time of 34.1416 on 4 procs for 1000 steps with 1000 atoms

Performance: 2.531 ns/day, 9.484 hours/ns, 29.290 timesteps/s
85.9% CPU use with 4 MPI tasks x no OpenMP threads

MPI task timing breakdown:
Section |  min time  |  avg time  |  max time  |%varavg| %total
---------------------------------------------------------------
Pair    | 9.2577     | 9.6938     | 10.095     |   9.7 | 28.39
Neigh   | 3.557      | 3.6624     | 3.8107     |   4.9 | 10.73
Comm    | 1.2962     | 1.845      | 2.3854     |  28.8 |  5.40
Output  | 12.93      | 14.419     | 18.88      |  67.8 | 42.23
Modify  | 0.043195   | 4.505      | 5.995      | 121.4 | 13.19
Other   |            | 0.01646    |            |       |  0.05

Nlocal:    250 ave 252 max 247 min
Histogram: 1 0 0 0 1 0 0 0 0 2
Nghost:    3010.75 ave 3032 max 2996 min
Histogram: 1 0 1 1 0 0 0 0 0 1
Neighs:    0 ave 0 max 0 min
Histogram: 4 0 0 0 0 0 0 0 0 0
FullNghs:  74887.5 ave 75332 max 73872 min
Histogram: 1 0 0 0 0 0 0 1 0 2

Total # of neighbors = 299550
Ave neighs/atom = 299.55
Neighbor list builds = 1000
Dangerous builds not checked
Setting up Verlet run ...
  Unit style    : real
  Current step  : 19000
  Time step     : 1
Per MPI rank memory allocation (min/avg/max) = 3.625 | 3.625 | 3.626 Mbytes
Step Temp E_pair E_mol TotEng Press Volume Lx Ly Lz S/CPU 
   19000    298.32923   -10460.847            0   -9572.4738   -8454.9753    787.35846    9.2340205    9.2340205    9.2340205            0 
   19100    296.34069   -10461.348            0   -9578.8961   -1005.0686     786.4224    9.2303597    9.2303597    9.2303597    31.333505 
   19200    309.50446   -10511.946            0   -9590.2943    -9028.032    785.25604    9.2257942    9.2257942    9.2257942    30.943433 
   19300    291.93127   -10475.316            0    -9605.995   -7592.3415    784.22441    9.2217523    9.2217523    9.2217523    31.900202 
   19400    294.75886   -10501.929            0   -9624.1877    5666.3718     783.2163    9.2177991    9.2177991    9.2177991    24.649341 
   19500    298.29189   -10527.844            0   -9639.5817   -4907.6731    782.18867    9.2137659    9.2137659    9.2137659    29.990421 
   19600      294.973   -10528.574            0   -9650.1945    11401.494    780.85878    9.2085411    9.2085411    9.2085411    26.523498 
   19700    287.32284   -10512.009            0   -9656.4107   -990.61633    779.83919    9.2045314    9.2045314    9.2045314    29.545334 
   19800    297.95148   -10547.445            0   -9660.1966    336.54279    778.66711    9.1999177    9.1999177    9.1999177     32.03421 
   19900    301.50053   -10560.448            0   -9662.6308   -1878.8652    777.23927     9.194291     9.194291     9.194291    26.348748 
   20000    301.57616   -10562.408            0   -9664.3661    2566.8082    775.78135    9.1885386    9.1885386    9.1885386    32.652981 
Loop time of 34.0836 on 4 procs for 1000 steps with 1000 atoms

Performance: 2.535 ns/day, 9.468 hours/ns, 29.340 timesteps/s
85.9% CPU use with 4 MPI tasks x no OpenMP threads

MPI task timing breakdown:
Section |  min time  |  avg time  |  max time  |%varavg| %total
---------------------------------------------------------------
Pair    | 9.3603     | 9.7302     | 9.9522     |   7.3 | 28.55
Neigh   | 3.5042     | 3.6508     | 3.7515     |   4.9 | 10.71
Comm    | 1.5224     | 1.8459     | 2.3633     |  23.6 |  5.42
Output  | 12.663     | 14.198     | 18.796     |  70.5 | 41.66
Modify  | 0.044442   | 4.6425     | 6.1771     | 123.2 | 13.62
Other   |            | 0.0165     |            |       |  0.05

Nlocal:    250 ave 256 max 242 min
Histogram: 1 0 0 0 0 1 0 1 0 1
Nghost:    3025.75 ave 3034 max 3020 min
Histogram: 2 0 0 0 0 0 1 0 0 1
Neighs:    0 ave 0 max 0 min
Histogram: 4 0 0 0 0 0 0 0 0 0
FullNghs:  76124 ave 78285 max 73419 min
Histogram: 1 0 0 0 0 1 1 0 0 1

Total # of neighbors = 304496
Ave neighs/atom = 304.496
Neighbor list builds = 1000
Dangerous builds not checked
Setting up Verlet run ...
  Unit style    : real
  Current step  : 20000
  Time step     : 1
Per MPI rank memory allocation (min/avg/max) = 3.625 | 3.625 | 3.626 Mbytes
Step Temp E_pair E_mol TotEng Press Volume Lx Ly Lz S/CPU 
   20000    301.57616   -10562.408            0   -9664.3661    2566.8082    775.78135    9.1885386    9.1885386    9.1885386            0 
   20100     285.5887    -10515.11            0   -9664.6752    11304.109    774.50871    9.1835114    9.1835114    9.1835114    23.949659 
   20200    297.07873   -10550.635            0   -9665.9857    4255.1747    773.69025    9.1802754    9.1802754    9.1802754    25.916277 
   20300    295.85693   -10545.934            0   -9664.9224     244.7764    773.21081    9.1783787    9.1783787    9.1783787    30.815983 
   20400    290.65456   -10527.508            0   -9661.9884    7321.3594    773.38242    9.1790577    9.1790577    9.1790577    28.565174 
   20500    282.04347   -10497.084            0   -9657.2064    11700.896    774.32468     9.182784     9.182784     9.182784    32.324444 
   20600    300.26436   -10546.007            0   -9651.8711   -2745.9342    775.89653    9.1889933    9.1889933    9.1889933    28.079628 
   20700    295.52569   -10523.869            0   -9643.8438    11336.674    777.63632    9.1958564    9.1958564    9.1958564    29.576065 
   20800     296.6054   -10518.758            0   -9635.5174    -1558.371    779.56973    9.2034711    9.2034711    9.2034711    23.362084 
   20900    295.49197   -10504.803            0   -9624.8784    4136.5997    781.62796    9.2115637    9.2115637    9.2115637    30.016353 
   21000    307.33618   -10530.172            0   -9614.9771   -22005.995     783.9743    9.2207718    9.2207718    9.2207718    31.074892 
Loop time of 35.6459 on 4 procs for 1000 steps with 1000 atoms

Performance: 2.424 ns/day, 9.902 hours/ns, 28.054 timesteps/s
85.6% CPU use with 4 MPI tasks x no OpenMP threads

MPI task timing breakdown:
Section |  min time  |  avg time  |  max time  |%varavg| %total
---------------------------------------------------------------
Pair    | 9.5754     | 9.8616     | 10.089     |   6.3 | 27.67
Neigh   | 3.6041     | 3.664      | 3.7581     |   3.3 | 10.28
Comm    | 1.5709     | 1.8913     | 2.237      |  18.7 |  5.31
Output  | 13.139     | 14.898     | 20.168     |  78.8 | 41.79
Modify  | 0.042602   | 5.3146     | 7.075      | 132.0 | 14.91
Other   |            | 0.01655    |            |       |  0.05

Nlocal:    250 ave 257 max 245 min
Histogram: 1 0 1 0 1 0 0 0 0 1
Nghost:    3008 ave 3031 max 2984 min
Histogram: 1 0 0 0 1 1 0 0 0 1
Neighs:    0 ave 0 max 0 min
Histogram: 4 0 0 0 0 0 0 0 0 0
FullNghs:  75282.5 ave 77713 max 73746 min
Histogram: 1 0 2 0 0 0 0 0 0 1

Total # of neighbors = 301130
Ave neighs/atom = 301.13
Neighbor list builds = 1000
Dangerous builds not checked
Setting up Verlet run ...
  Unit style    : real
  Current step  : 21000
  Time step     : 1
Per MPI rank memory allocation (min/avg/max) = 3.625 | 3.625 | 3.626 Mbytes
Step Temp E_pair E_mol TotEng Press Volume Lx Ly Lz S/CPU 
   21000    307.33618   -10530.172            0   -9614.9771   -22005.995     783.9743    9.2207718    9.2207718    9.2207718            0 
   21100    299.67004    -10496.87            0   -9604.5037   -7409.4371    785.96445    9.2285677    9.2285677    9.2285677    27.486878 
   21200    302.58058   -10497.338            0   -9596.3044   -864.86744    787.62711    9.2350706    9.2350706    9.2350706    26.294651 
   21300    299.40246   -10481.108            0   -9589.5384   -10590.505    788.90281    9.2400538    9.2400538    9.2400538    30.947479 
   21400    300.95176   -10481.789            0   -9585.6061   -6545.5799    789.68048     9.243089     9.243089     9.243089    28.172404 
   21500    305.00753   -10490.749            0   -9582.4883   -11063.681    789.80667    9.2435813    9.2435813    9.2435813    28.242533 
   21600    302.12165   -10478.708            0   -9579.0411   -21464.808    789.19078     9.241178     9.241178     9.241178    27.017684 
   21700    293.87397    -10451.75            0   -9576.6431   -9614.6714    787.80827    9.2357786    9.2357786    9.2357786    33.302785 
   21800    298.19917    -10462.15            0   -9574.1636    6599.0378    786.17275    9.2293829    9.2293829    9.2293829    24.638768 
   21900    305.93856   -10484.185            0   -9573.1527   -10170.797    784.31347    9.2221014    9.2221014    9.2221014    23.511314 
   22000    315.28432   -10512.099            0   -9573.2363    16019.905     782.4125    9.2146447    9.2146447    9.2146447    29.574498 
Loop time of 36.16 on 4 procs for 1000 steps with 1000 atoms

Performance: 2.389 ns/day, 10.044 hours/ns, 27.655 timesteps/s
85.2% CPU use with 4 MPI tasks x no OpenMP threads

MPI task timing breakdown:
Section |  min time  |  avg time  |  max time  |%varavg| %total
---------------------------------------------------------------
Pair    | 9.3019     | 9.5544     | 9.9491     |   7.9 | 26.42
Neigh   | 3.5277     | 3.6219     | 3.7669     |   4.8 | 10.02
Comm    | 1.3019     | 1.8426     | 2.1894     |  24.8 |  5.10
Output  | 14.438     | 16.101     | 21.083     |  71.7 | 44.53
Modify  | 0.040857   | 5.0236     | 6.6869     | 128.4 | 13.89
Other   |            | 0.01669    |            |       |  0.05

Nlocal:    250 ave 255 max 246 min
Histogram: 1 0 1 0 0 1 0 0 0 1
Nghost:    3019 ave 3034 max 3004 min
Histogram: 1 0 0 1 0 0 1 0 0 1
Neighs:    0 ave 0 max 0 min
Histogram: 4 0 0 0 0 0 0 0 0 0
FullNghs:  75471 ave 76965 max 74417 min
Histogram: 1 1 0 0 1 0 0 0 0 1

Total # of neighbors = 301884
Ave neighs/atom = 301.884
Neighbor list builds = 1000
Dangerous builds not checked
Setting up Verlet run ...
  Unit style    : real
  Current step  : 22000
  Time step     : 1
Per MPI rank memory allocation (min/avg/max) = 3.625 | 3.625 | 3.626 Mbytes
Step Temp E_pair E_mol TotEng Press Volume Lx Ly Lz S/CPU 
   22000    315.28432   -10512.099            0   -9573.2363    16019.905     782.4125    9.2146447    9.2146447    9.2146447            0 
   22100    311.40262    -10502.32            0   -9575.0158    5754.6244    781.11296    9.2095402    9.2095402    9.2095402    27.504514 
   22200    293.20287   -10447.519            0   -9574.4109    9999.7928    780.32869    9.2064569    9.2064569    9.2064569    29.300318 
   22300     298.8813   -10467.389            0   -9577.3713   -732.35077    780.04527    9.2053422    9.2053422    9.2053422    31.967612 
   22400    303.74889   -10483.171            0   -9578.6585    18571.642     780.3374    9.2064911    9.2064911    9.2064911    27.804521 
   22500    301.98666   -10481.433            0   -9582.1687    10458.356     781.2911    9.2102402    9.2102402    9.2102402    26.578819 
   22600    299.83451   -10478.963            0   -9586.1071    6523.0666    782.59656    9.2153672    9.2153672    9.2153672    27.338003 
   22700     301.1992   -10489.063            0   -9592.1437    -5861.508     784.2153    9.2217166    9.2217166    9.2217166     26.38655 
   22800    306.60264   -10511.961            0   -9598.9505   -4676.5784    785.93652    9.2284584    9.2284584    9.2284584    31.352876 
   22900    299.98194   -10500.396            0   -9607.1008   -727.03506    787.74282    9.2355228    9.2355228    9.2355228    30.034017 
   23000    296.14719   -10497.412            0   -9615.5358   -2971.8769    789.48839    9.2423395    9.2423395    9.2423395    27.415849 
Loop time of 35.1501 on 4 procs for 1000 steps with 1000 atoms

Performance: 2.458 ns/day, 9.764 hours/ns, 28.449 timesteps/s
85.6% CPU use with 4 MPI tasks x no OpenMP threads

MPI task timing breakdown:
Section |  min time  |  avg time  |  max time  |%varavg| %total
---------------------------------------------------------------
Pair    | 9.4477     | 9.6646     | 9.9147     |   5.5 | 27.50
Neigh   | 3.571      | 3.627      | 3.7597     |   4.1 | 10.32
Comm    | 1.4965     | 1.8797     | 2.1535     |  17.8 |  5.35
Output  | 13.853     | 15.371     | 19.919     |  67.0 | 43.73
Modify  | 0.04305    | 4.5912     | 6.1093     | 122.5 | 13.06
Other   |            | 0.01632    |            |       |  0.05

Nlocal:    250 ave 254 max 246 min
Histogram: 1 0 1 0 0 0 0 1 0 1
Nghost:    2984.5 ave 3006 max 2973 min
Histogram: 1 1 1 0 0 0 0 0 0 1
Neighs:    0 ave 0 max 0 min
Histogram: 4 0 0 0 0 0 0 0 0 0
FullNghs:  74723 ave 75760 max 73284 min
Histogram: 1 0 0 1 0 0 0 0 0 2

Total # of neighbors = 298892
Ave neighs/atom = 298.892
Neighbor list builds = 1000
Dangerous builds not checked
Setting up Verlet run ...
  Unit style    : real
  Current step  : 23000
  Time step     : 1
Per MPI rank memory allocation (min/avg/max) = 3.625 | 3.625 | 3.626 Mbytes
Step Temp E_pair E_mol TotEng Press Volume Lx Ly Lz S/CPU 
   23000    296.14719   -10497.412            0   -9615.5358   -2971.8769    789.48839    9.2423395    9.2423395    9.2423395            0 
   23100    291.92194   -10494.972            0    -9625.678    -10925.27    790.50291    9.2462967    9.2462967    9.2462967    31.869428 
   23200    299.81746   -10529.773            0    -9636.968   -11743.094    790.32145    9.2455891    9.2455891    9.2455891    26.755336 
   23300    289.74777   -10510.127            0   -9647.3077    4800.4892    788.93207    9.2401681    9.2401681    9.2401681    28.468699 
   23400    292.12979   -10527.734            0    -9657.821   -16588.441    786.92649    9.2323315    9.2323315    9.2323315    21.628801 
   23500    296.17671   -10548.686            0   -9666.7222    7732.0271    783.79613    9.2200733    9.2200733    9.2200733    27.921874 
   23600    291.08305   -10540.636            0   -9673.8405    1840.4415    780.00754    9.2051938    9.2051938    9.2051938    28.453924 
   23700    277.91115   -10504.627            0   -9677.0549    18855.523    776.28705    9.1905347    9.1905347    9.1905347    29.811838 
   23800     296.0851   -10561.271            0   -9679.5797    11520.311    773.12306    9.1780315    9.1780315    9.1780315    30.733381 
   23900    290.92543   -10545.407            0   -9679.0805    16858.796    770.78507    9.1687704    9.1687704    9.1687704    28.915309 
   24000    300.84361   -10573.695            0   -9677.8341    20403.524    769.71814     9.164538     9.164538     9.164538    27.266105 
Loop time of 35.8415 on 4 procs for 1000 steps with 1000 atoms

Performance: 2.411 ns/day, 9.956 hours/ns, 27.901 timesteps/s
85.4% CPU use with 4 MPI tasks x no OpenMP threads

MPI task timing breakdown:
Section |  min time  |  avg time  |  max time  |%varavg| %total
---------------------------------------------------------------
Pair    | 9.4869     | 9.7102     | 10.202     |   9.2 | 27.09
Neigh   | 3.582      | 3.6419     | 3.8055     |   5.0 | 10.16
Comm    | 1.2023     | 1.8577     | 2.1404     |  27.9 |  5.18
Output  | 14.375     | 15.926     | 20.571     |  67.2 | 44.43
Modify  | 0.043657   | 4.6896     | 6.2404     | 123.9 | 13.08
Other   |            | 0.01653    |            |       |  0.05

Nlocal:    250 ave 255 max 241 min
Histogram: 1 0 0 0 0 1 0 0 0 2
Nghost:    3032.75 ave 3047 max 3013 min
Histogram: 1 0 0 0 0 1 0 1 0 1
Neighs:    0 ave 0 max 0 min
Histogram: 4 0 0 0 0 0 0 0 0 0
FullNghs:  76793 ave 78469 max 73903 min
Histogram: 1 0 0 0 0 1 0 0 0 2

Total # of neighbors = 307172
Ave neighs/atom = 307.172
Neighbor list builds = 1000
Dangerous builds not checked
Setting up Verlet run ...
  Unit style    : real
  Current step  : 24000
  Time step     : 1
Per MPI rank memory allocation (min/avg/max) = 3.625 | 3.625 | 3.626 Mbytes
Step Temp E_pair E_mol TotEng Press Volume Lx Ly Lz S/CPU 
   24000    300.84361   -10573.695            0   -9677.8341    20403.524    769.71814     9.164538     9.164538     9.164538            0 
   24100    289.65656   -10539.076            0   -9676.5279    25293.304    769.98238    9.1655866    9.1655866    9.1655866    31.123044 
   24200    298.96695   -10566.903            0   -9676.6301    12809.589    771.43123    9.1713318    9.1713318    9.1713318    26.749314 
   24300    291.69112   -10542.202            0   -9673.5952     12405.84    773.76167    9.1805578    9.1805578    9.1805578    31.237361 
   24400    291.59621   -10539.601            0   -9671.2777    3503.0488    776.69324    9.1921374    9.1921374    9.1921374    24.107909 
   24500    291.60086   -10535.508            0   -9667.1705   -18992.897     780.1293    9.2056727    9.2056727    9.2056727    31.741448 
   24600    292.97327   -10535.341            0    -9662.917   -8183.7448    783.46607    9.2187789    9.2187789    9.2187789    28.049517 
   24700    300.67952   -10551.733            0   -9656.3607   -7862.0296    786.47761    9.2305757    9.2305757    9.2305757    27.775393 
   24800    298.24418   -10536.845            0   -9648.7249    2498.8397    789.30489    9.2416233    9.2416233    9.2416233    26.758849 
   24900     290.2026    -10503.05            0   -9638.8765    -17518.46    791.92409    9.2518344    9.2518344    9.2518344    34.212937 
   25000    290.40094   -10493.229            0    -9628.465   -22258.088    793.08782    9.2563641    9.2563641    9.2563641    26.929575 
Loop time of 34.99 on 4 procs for 1000 steps with 1000 atoms

Performance: 2.469 ns/day, 9.719 hours/ns, 28.580 timesteps/s
85.7% CPU use with 4 MPI tasks x no OpenMP threads

MPI task timing breakdown:
Section |  min time  |  avg time  |  max time  |%varavg| %total
---------------------------------------------------------------
Pair    | 9.7254     | 9.8148     | 10.035     |   4.1 | 28.05
Neigh   | 3.6211     | 3.6812     | 3.7606     |   2.6 | 10.52
Comm    | 1.5025     | 1.8018     | 1.9509     |  13.1 |  5.15
Output  | 13.897     | 15.332     | 19.633     |  63.4 | 43.82
Modify  | 0.042092   | 4.3433     | 5.7793     | 119.2 | 12.41
Other   |            | 0.01651    |            |       |  0.05

Nlocal:    250 ave 254 max 241 min
Histogram: 1 0 0 0 0 0 0 1 0 2
Nghost:    2959.25 ave 2994 max 2924 min
Histogram: 1 0 0 0 1 1 0 0 0 1
Neighs:    0 ave 0 max 0 min
Histogram: 4 0 0 0 0 0 0 0 0 0
FullNghs:  74381 ave 76201 max 71174 min
Histogram: 1 0 0 0 0 0 0 1 1 1

Total # of neighbors = 297524
Ave neighs/atom = 297.524
Neighbor list builds = 1000
Dangerous builds not checked
Setting up Verlet run ...
  Unit style    : real
  Current step  : 25000
  Time step     : 1
Per MPI rank memory allocation (min/avg/max) = 3.625 | 3.625 | 3.626 Mbytes
Step Temp E_pair E_mol TotEng Press Volume Lx Ly Lz S/CPU 
   25000    290.40094   -10493.229            0    -9628.465   -22258.088    793.08782    9.2563641    9.2563641    9.2563641            0 
   25100    291.39616   -10486.643            0   -9618.9155   -11618.592    792.73866    9.2550055    9.2550055    9.2550055    23.540556 
   25200    305.13353   -10517.381            0   -9608.7454   -6986.8976    791.40713    9.2498208    9.2498208    9.2498208     29.90145 
   25300     290.5312     -10462.9            0   -9597.7481    1042.7256    789.11333    9.2408757    9.2408757    9.2408757    28.197164 
   25400     289.1972   -10450.212            0   -9589.0317   -2996.9834    786.13596    9.2292389    9.2292389    9.2292389    30.866947 
   25500    299.65808   -10473.101            0   -9580.7701    2832.7859    783.21008    9.2177747    9.2177747    9.2177747    29.807446 
   25600    300.61471    -10468.71            0   -9573.5304    7285.7197    781.05606    9.2093166    9.2093166    9.2093166    32.190449 
   25700    299.63774   -10459.768            0   -9567.4976    3107.2976    779.51141    9.2032417    9.2032417    9.2032417    25.975042 
   25800     313.3553   -10497.769            0     -9564.65    7440.4954    778.99135    9.2011945    9.2011945    9.2011945     28.37081 
   25900    313.81887   -10498.246            0   -9563.7473    9944.3275    779.38448    9.2027421    9.2027421    9.2027421    31.724708 
   26000    310.24935   -10488.281            0   -9564.4115    2739.2204    780.61123    9.2075679    9.2075679    9.2075679     25.28821 
Loop time of 35.321 on 4 procs for 1000 steps with 1000 atoms

Performance: 2.446 ns/day, 9.811 hours/ns, 28.312 timesteps/s
85.5% CPU use with 4 MPI tasks x no OpenMP threads

MPI task timing breakdown:
Section |  min time  |  avg time  |  max time  |%varavg| %total
---------------------------------------------------------------
Pair    | 9.39       | 9.6569     | 10.109     |   9.4 | 27.34
Neigh   | 3.5597     | 3.636      | 3.778      |   4.4 | 10.29
Comm    | 1.2929     | 1.8875     | 2.2304     |  27.2 |  5.34
Output  | 13.751     | 15.335     | 20.082     |  70.0 | 43.42
Modify  | 0.042599   | 4.7894     | 6.3738     | 125.2 | 13.56
Other   |            | 0.01634    |            |       |  0.05

Nlocal:    250 ave 260 max 240 min
Histogram: 1 0 0 0 1 1 0 0 0 1
Nghost:    2999.25 ave 3028 max 2971 min
Histogram: 1 0 1 0 0 0 0 1 0 1
Neighs:    0 ave 0 max 0 min
Histogram: 4 0 0 0 0 0 0 0 0 0
FullNghs:  75590 ave 79135 max 71959 min
Histogram: 1 0 0 0 1 1 0 0 0 1

Total # of neighbors = 302360
Ave neighs/atom = 302.36
Neighbor list builds = 1000
Dangerous builds not checked
Setting up Verlet run ...
  Unit style    : real
  Current step  : 26000
  Time step     : 1
Per MPI rank memory allocation (min/avg/max) = 3.625 | 3.625 | 3.626 Mbytes
Step Temp E_pair E_mol TotEng Press Volume Lx Ly Lz S/CPU 
   26000    310.24935   -10488.281            0   -9564.4115    2739.2204    780.61123    9.2075679    9.2075679    9.2075679            0 
   26100    316.11758   -10509.911            0   -9568.5669    3663.9938    782.27994    9.2141242    9.2141242    9.2141242    31.027021 
   26200      302.037   -10472.906            0   -9573.4914    6592.7584    784.14417    9.2214378    9.2214378    9.2214378    28.145495 
   26300    292.58897   -10452.101            0   -9580.8214   -12386.334    785.97629     9.228614     9.228614     9.228614    29.409866 
   26400    300.57143   -10483.482            0   -9588.4319   -20116.596    787.06396     9.232869     9.232869     9.232869    31.636468 
   26500    301.87368   -10494.842            0   -9595.9137   -3199.4337    786.79419    9.2318141    9.2318141    9.2318141    27.184906 
   26600    298.29412   -10491.837            0   -9603.5678   -5200.0343    785.77172    9.2278133    9.2278133    9.2278133    29.788196 
   26700    302.38746    -10513.56            0   -9613.1018    1472.4189     784.1803    9.2215794    9.2215794    9.2215794    30.920745 
   26800    297.21261   -10505.196            0   -9620.1475    3309.3999    782.36649    9.2144641    9.2144641    9.2144641    29.358018 
   26900    300.65265   -10523.256            0   -9627.9642    8829.4797    780.58269    9.2074557    9.2074557    9.2074557    33.921597 
   27000    304.63104   -10542.591            0   -9635.4514    14559.982    779.17544    9.2019193    9.2019193    9.2019193    28.945572 
Loop time of 33.4157 on 4 procs for 1000 steps with 1000 atoms

Performance: 2.586 ns/day, 9.282 hours/ns, 29.926 timesteps/s
86.1% CPU use with 4 MPI tasks x no OpenMP threads

MPI task timing breakdown:
Section |  min time  |  avg time  |  max time  |%varavg| %total
---------------------------------------------------------------
Pair    | 9.4487     | 9.67       | 10.127     |   8.9 | 28.94
Neigh   | 3.559      | 3.6412     | 3.8051     |   5.0 | 10.90
Comm    | 1.2205     | 1.8418     | 2.14       |  27.3 |  5.51
Output  | 12.397     | 13.85      | 18.204     |  67.5 | 41.45
Modify  | 0.041765   | 4.3961     | 5.8501     | 119.9 | 13.16
Other   |            | 0.01644    |            |       |  0.05

Nlocal:    250 ave 257 max 243 min
Histogram: 1 0 0 0 1 1 0 0 0 1
Nghost:    3030.5 ave 3052 max 3006 min
Histogram: 1 0 0 0 0 1 1 0 0 1
Neighs:    0 ave 0 max 0 min
Histogram: 4 0 0 0 0 0 0 0 0 0
FullNghs:  75734 ave 78458 max 73021 min
Histogram: 1 0 0 0 1 1 0 0 0 1

Total # of neighbors = 302936
Ave neighs/atom = 302.936
Neighbor list builds = 1000
Dangerous builds not checked
Setting up Verlet run ...
  Unit style    : real
  Current step  : 27000
  Time step     : 1
Per MPI rank memory allocation (min/avg/max) = 3.625 | 3.625 | 3.626 Mbytes
Step Temp E_pair E_mol TotEng Press Volume Lx Ly Lz S/CPU 
   27000    304.63104   -10542.591            0   -9635.4514    14559.982    779.17544    9.2019193    9.2019193    9.2019193            0 
   27100    291.01197    -10507.23            0   -9640.6463    4848.3231    778.25508    9.1982947    9.1982947    9.1982947     31.57898 
   27200     300.1753   -10539.251            0   -9645.3806    12795.717     777.8037    9.1965161    9.1965161    9.1965161    27.733816 
   27300     297.1452   -10531.916            0   -9647.0684    14513.232    778.08761    9.1976349    9.1976349    9.1976349    25.888864 
   27400    302.72819   -10550.456            0   -9648.9829    13374.787    779.12035    9.2017024    9.2017024    9.2017024    30.446343 
   27500    289.31944   -10510.563            0   -9649.0191   -4452.4477    780.56105    9.2073706    9.2073706    9.2073706     27.75822 
   27600    296.04919   -10529.706            0   -9648.1217   -7367.1397    781.71865      9.21192      9.21192      9.21192    31.896177 
   27700    295.83116   -10527.063            0   -9646.1288   -121.00911    782.65937    9.2156137    9.2156137    9.2156137    27.460059 
   27800    295.40964   -10520.768            0   -9641.0884   -12121.745    783.33491    9.2182644    9.2182644    9.2182644    25.373054 
   27900    297.65737   -10524.311            0   -9637.9382   -14695.586    783.38581    9.2184641    9.2184641    9.2184641    29.621842 
   28000    303.96562   -10540.454            0   -9635.2966   -1026.2584    782.88723     9.216508     9.216508     9.216508    25.788773 
Loop time of 35.4936 on 4 procs for 1000 steps with 1000 atoms

Performance: 2.434 ns/day, 9.859 hours/ns, 28.174 timesteps/s
85.5% CPU use with 4 MPI tasks x no OpenMP threads

MPI task timing breakdown:
[...]
  593700    308.17549   -11314.857            0   -10397.163     13518.48    740.77834    9.0482118    9.0482118    9.0482118    31.748262 
  593800    304.67746   -11303.041            0   -10395.764   -12657.762    743.46778    9.0591486    9.0591486    9.0591486    35.013955 
  593900    296.97373   -11277.442            0   -10393.105   -6782.0999    745.50823    9.0674286    9.0674286    9.0674286    31.653589 
  594000    301.27364    -11291.14            0   -10393.999    -32693.54    746.76758    9.0725315    9.0725315    9.0725315    35.297956 
  594100    296.86875   -11274.546            0   -10390.521   -14284.635    746.56735    9.0717206    9.0717206    9.0717206    33.585374 
  594200    302.80512   -11291.833            0   -10390.131   -12916.763    744.97808    9.0652788    9.0652788    9.0652788    35.158763 
  594300    303.20712    -11293.22            0   -10390.321   -7305.2487    742.52089     9.055301     9.055301     9.055301    26.685085 
  594400    300.79908    -11285.21            0   -10389.481   -2041.7007    739.86206    9.0444796    9.0444796    9.0444796    33.483391 
  594500    318.11441   -11336.719            0   -10389.429    12257.832    737.56309     9.035102     9.035102     9.035102     30.83864 
  594600    294.31876   -11264.026            0   -10387.595    22233.415    736.09846    9.0291175    9.0291175    9.0291175    29.521957 
  594700    299.32135   -11278.205            0   -10386.877    12716.641    735.58746    9.0270276    9.0270276    9.0270276      28.0701 
  594800    303.68042    -11291.97            0   -10387.661    20508.449    736.30628    9.0299671    9.0299671    9.0299671    34.679891 
  594900    302.83519   -11289.971            0    -10388.18    9144.1362    738.48613    9.0388694    9.0388694    9.0388694    34.710906 
  595000    293.40643   -11261.756            0   -10388.042   -5184.1017    741.59618    9.0515404    9.0515404    9.0515404    34.664232 
  595100    301.22302   -11286.135            0   -10389.144    1413.5809    744.63164    9.0638734    9.0638734    9.0638734    31.824931 
  595200    297.62251   -11273.934            0   -10387.665   -13117.893     747.4735    9.0753894    9.0753894    9.0753894    29.779439 
  595300    301.37011    -11284.09            0   -10386.661   -41215.064    749.16134    9.0822151    9.0822151    9.0822151    32.884154 
  595400    304.59065   -11292.395            0   -10385.376   -28397.144    749.01451    9.0816218    9.0816218    9.0816218    31.634937 
  595500    288.86855   -11245.008            0   -10384.807   -15579.542    747.19658    9.0742685    9.0742685    9.0742685    36.680469 
  595600     296.6771   -11269.405            0   -10385.952   -4372.1564    744.29981    9.0625268    9.0625268    9.0625268    31.650175 
  595700    298.74298   -11276.636            0    -10387.03   -9621.3375    740.87108    9.0485894    9.0485894    9.0485894    32.465083 
  595800    314.36553   -11325.566            0   -10389.439    19166.112    737.66147    9.0355037    9.0355037    9.0355037    34.159444 
  595900    300.95713   -11287.727            0   -10391.528    29274.186    735.39639     9.026246     9.026246     9.026246    34.895904 
  596000    307.32818    -11311.36            0   -10396.189    19962.382    734.53227    9.0227092    9.0227092    9.0227092     32.31171 
  596100    304.12688   -11309.776            0   -10404.138    24862.153    735.39327    9.0262332    9.0262332    9.0262332    30.135754 
  596200    305.76066   -11326.057            0   -10415.554    6029.6449    737.42049    9.0345197    9.0345197    9.0345197    34.428751 
  596300    294.68144   -11304.278            0   -10426.767    9956.3121    739.93666    9.0447836    9.0447836    9.0447836    32.259007 
  596400    287.66269   -11295.199            0   -10438.588   -11295.905    742.68548    9.0559701    9.0559701    9.0559701    35.214407 
  596500    287.81839   -11306.493            0   -10449.419   -2385.5786    744.75533    9.0643752    9.0643752    9.0643752    34.873522 
  596600    299.10689    -11347.95            0   -10457.261   -29336.203    745.91767    9.0690883    9.0690883    9.0690883    29.251163 
  596700    289.20995   -11324.374            0   -10463.156   -15478.268    745.81701    9.0686804    9.0686804    9.0686804    29.483634 
  596800    298.08912   -11355.487            0   -10467.828   -27795.946    744.38896    9.0628886    9.0628886    9.0628886    31.390599 
  596900    293.65578   -11343.867            0   -10469.411   -10662.106    741.91392     9.052833     9.052833     9.052833    32.809562 
  597000     297.1572   -11354.977            0   -10470.093    8888.9726    739.00835    9.0409996    9.0409996    9.0409996    29.634391 
  597100    282.97204   -11310.658            0   -10468.016    21771.787    736.61901    9.0312453    9.0312453    9.0312453    34.093957 
  597200    299.88292   -11358.282            0   -10465.282     20140.67    735.34834    9.0260494    9.0260494    9.0260494    30.179269 
  597300    294.18341   -11335.101            0   -10459.073    33046.646    735.25026    9.0256481    9.0256481    9.0256481    35.786982 
  597400    298.54023   -11341.023            0   -10452.021    14669.404    736.36767     9.030218     9.030218     9.030218    32.102541 
  597500     297.4662   -11327.317            0   -10441.513    20270.379    738.28306    9.0380409    9.0380409    9.0380409    32.588809 
  597600    298.34683   -11318.197            0   -10429.771    2575.5527    740.58796    9.0474366    9.0474366    9.0474366    32.138321 
  597700     296.4088   -11299.115            0    -10416.46   -454.76983    742.82843    9.0565511    9.0565511    9.0565511    34.170094 
  597800     294.9943   -11283.784            0   -10405.341    -5874.335     744.7307    9.0642753    9.0642753    9.0642753    31.737549 
  597900    301.29877   -11293.455            0   -10396.239   -13088.507     745.9991    9.0694183    9.0694183    9.0694183    29.300148 
  598000    303.23123   -11293.311            0    -10390.34     -18765.1     746.3115    9.0706841    9.0706841    9.0706841     29.58703 
  598100    294.23451   -11260.812            0   -10384.632   -3119.4071    745.73763    9.0683586    9.0683586    9.0683586    33.374246 
  598200    302.35802   -11284.309            0   -10383.938   -3190.1497    744.50335    9.0633528    9.0633528    9.0633528    33.888262 
  598300    306.43544   -11295.288            0   -10382.776   -1668.1032    742.96472    9.0571049    9.0571049    9.0571049    30.442338 
  598400    301.27489   -11279.122            0   -10381.977    7259.2925    741.63122     9.051683     9.051683     9.051683    30.846952 
  598500    309.13563   -11303.044            0   -10382.491   -4274.4748    740.77307    9.0481903    9.0481903    9.0481903    32.480013 
  598600    306.54961   -11295.441            0   -10382.589   -502.62573    740.01096    9.0450863    9.0450863    9.0450863     28.46945 
  598700    311.42807   -11313.041            0   -10385.661     14838.27    739.76699    9.0440922    9.0440922    9.0440922    31.580912 
  598800    308.18374   -11304.586            0   -10386.868    8674.6999    740.17633      9.04576      9.04576      9.04576    28.654608 
  598900    307.57864   -11307.429            0   -10391.512    1563.1234    741.07999    9.0494398    9.0494398    9.0494398    30.685198 
  599000    304.47843   -11301.865            0    -10395.18    1062.8608    742.16301    9.0538459    9.0538459    9.0538459    27.697099 
  599100    299.57734   -11292.768            0   -10400.678    -1012.102    743.12857    9.0577706    9.0577706    9.0577706    30.599507 
  599200    306.36847   -11319.271            0   -10406.958   -8413.0888    743.80121    9.0605027    9.0605027    9.0605027     27.93624 
  599300    298.22378   -11301.123            0   -10413.063   -16717.295    744.14549    9.0619004    9.0619004    9.0619004    35.897544 
  599400    309.63228   -11342.406            0   -10420.374    2125.4738    744.00193    9.0613176    9.0613176    9.0613176    31.631494 
  599500    305.67329   -11337.604            0   -10427.362   -15734.163    743.47841    9.0591918    9.0591918    9.0591918    33.584509 
  599600    297.47683   -11317.832            0   -10431.997    8149.0958    742.47537     9.055116     9.055116     9.055116     32.81569 
  599700    289.32293   -11298.785            0   -10437.231   -2854.7736    741.33252    9.0504676    9.0504676    9.0504676    37.368513 
  599800    290.96354    -11308.56            0    -10442.12   -10273.895    739.97568    9.0449426    9.0449426    9.0449426    31.429946 
  599900    289.67221   -11311.039            0   -10448.445   -1961.3397    738.55387    9.0391458    9.0391458    9.0391458    29.882394 
  600000    300.48116    -11351.24            0   -10456.459    3769.4425    737.38955    9.0343933    9.0343933    9.0343933    35.079975 
  600100    285.28523   -11312.041            0    -10462.51    28713.244    736.74705    9.0317686    9.0317686    9.0317686    32.536468 
  600200    284.87355   -11318.428            0   -10470.123    5212.8364     736.7348    9.0317185    9.0317185    9.0317185    31.640576 
  600300    287.30688   -11332.517            0   -10476.966     5238.174    737.37983    9.0343536    9.0343536    9.0343536    31.325261 
  600400    294.51319   -11359.718            0   -10482.708   -5707.7145    738.49355    9.0388997    9.0388997    9.0388997    34.761052 
  600500     295.5721   -11369.048            0   -10488.885   -5111.0995    739.44812    9.0427926    9.0427926    9.0427926    29.588463 
  600600     289.0796   -11352.171            0   -10491.341   -2012.2376    740.31419    9.0463216    9.0463216    9.0463216    32.372173 
  600700    287.25347   -11346.896            0   -10491.504    1052.9531    740.97018    9.0489928    9.0489928    9.0489928    25.580824 
  600800    283.42864   -11331.508            0   -10487.506    -7556.732    741.36446    9.0505975    9.0505975    9.0505975    31.979736 
  600900    291.18578   -11348.789            0   -10481.687    4126.9285    741.24545    9.0501132    9.0501132    9.0501132    36.522845 
  601000    287.70767   -11327.411            0   -10470.667   -1992.9168    740.82969    9.0484209    9.0484209    9.0484209      26.8307 
  601100    301.69711   -11354.474            0   -10456.071   -142.49603    740.16514    9.0457145    9.0457145    9.0457145    27.194123 
  601200    305.63203   -11350.864            0   -10440.744    6397.0803    739.61327    9.0434657    9.0434657    9.0434657     29.75697 
  601300    290.60769   -11291.392            0   -10426.012    3014.1233    739.35648     9.042419     9.042419     9.042419     32.05005 
  601400    300.48774   -11311.302            0   -10416.501   -1549.0691    739.13555    9.0415183    9.0415183    9.0415183    30.840661 
  601500    303.57388   -11312.696            0   -10408.705    15201.464    739.34153    9.0423581    9.0423581    9.0423581    32.915907 
  601600    297.62853   -11287.419            0   -10401.132      172.085    740.21012    9.0458977    9.0458977    9.0458977    31.418797 
  601700    297.82153   -11283.573            0   -10396.712     3626.093    741.50337    9.0511628    9.0511628    9.0511628    30.638253 
  601800    299.78146   -11284.786            0   -10392.088   -15167.908    742.68431    9.0559653    9.0559653    9.0559653    25.730947 
  601900    294.95289   -11264.199            0    -10385.88   -1848.3318    743.44143    9.0590416    9.0590416    9.0590416    32.269508 
  602000    297.46825   -11268.806            0   -10382.996   -11991.301     743.8179    9.0605704    9.0605704    9.0605704    31.193091 
  602100    300.93388    -11273.76            0   -10377.631    1157.6668    743.95745     9.061137     9.061137     9.061137    32.435641 
  602200    306.08525   -11284.479            0   -10373.009   -77.928069    744.25304     9.062337     9.062337     9.062337     36.31948 
  602300    288.60423   -11227.771            0   -10368.357   -9140.3936    744.53189    9.0634686    9.0634686    9.0634686    28.313035 
  602400    291.14974   -11231.481            0   -10364.487   -6128.1981    744.42292    9.0630264    9.0630264    9.0630264    28.517126 
  602500    304.61466   -11267.995            0   -10360.905   -44.702829    743.89436    9.0608809    9.0608809    9.0608809    30.820237 
  602600    307.67691   -11273.654            0   -10357.445   -13642.874     743.3798    9.0587912    9.0587912    9.0587912    25.304928 
  602700    292.58421    -11223.65            0   -10352.384   -8759.9259    742.41781     9.054882     9.054882     9.054882    32.249078 
  602800    309.39494   -11271.029            0   -10349.704    1941.2485    740.90826    9.0487408    9.0487408    9.0487408    34.308606 
  602900    314.01553   -11281.001            0   -10345.916    19980.175    739.38292    9.0425268    9.0425268    9.0425268    30.152423 
  603000    312.44513   -11273.443            0   -10343.035    1400.4663    738.54534     9.039111     9.039111     9.039111    32.165595 
  603100    305.82721   -11251.687            0   -10340.986    1288.9343    738.56538    9.0391928    9.0391928    9.0391928    28.867878 
  603200    303.78038   -11243.716            0    -10339.11    2686.7245    738.96571    9.0408257    9.0408257    9.0408257    33.255732 
  603300    294.91811   -11216.501            0   -10338.285    10799.144    739.76596     9.044088     9.044088     9.044088    31.896932 
  603400    303.70913   -11243.959            0   -10339.565     5831.796    741.20214     9.049937     9.049937     9.049937    35.022936 
  603500     307.9849   -11259.846            0    -10342.72   -3332.9043    742.74264    9.0562024    9.0562024    9.0562024     33.11967 
  603600    296.35188    -11229.16            0   -10346.674     2354.886    743.89174    9.0608703    9.0608703    9.0608703    31.087228 
  603700    302.30355   -11254.408            0   -10354.199   -11800.022    744.99342     9.065341     9.065341     9.065341    32.214239 
  603800     298.6336   -11252.894            0   -10363.614   -22601.806     745.6194    9.0678793    9.0678793    9.0678793    31.341761 
  603900    304.20887   -11279.036            0   -10373.154   -7445.6883    745.19491    9.0661582    9.0661582    9.0661582    30.982237 
  604000    291.18021   -11251.088            0   -10384.003    -17554.66    744.02326    9.0614042    9.0614042    9.0614042    33.148572 
  604100    297.24449    -11279.02            0   -10393.877   -1842.8802    742.13991     9.053752     9.053752     9.053752    30.235555 
  604200    293.67097   -11277.409            0   -10402.907    2595.0318    739.95075     9.044841     9.044841     9.044841    35.957554 
  604300    296.89269   -11294.644            0   -10410.548     18606.68     738.2585    9.0379407    9.0379407    9.0379407    34.868658 
  604400    295.05133   -11293.931            0   -10415.319    23672.012    737.59262    9.0352226    9.0352226    9.0352226    31.879439 
  604500    302.94371   -11324.732            0   -10422.617    3744.2709    738.08586    9.0372361    9.0372361    9.0372361    29.979177 
  604600     300.6315   -11321.394            0   -10426.165    15055.609    739.34262    9.0423625    9.0423625    9.0423625    30.067693 
  604700    296.92762   -11313.084            0   -10428.885   -4732.6983    741.39815    9.0507346    9.0507346    9.0507346    31.546583 
  604800    298.49979   -11318.441            0    -10429.56   -15248.981    743.56427    9.0595405    9.0595405    9.0595405    32.680374 
  604900    302.23903   -11328.215            0   -10428.198   -22360.027     745.2029    9.0661906    9.0661906    9.0661906    27.534129 
  605000    282.02677   -11264.421            0   -10424.593   -12303.317    745.83585    9.0687567    9.0687567    9.0687567    29.162948 
  605100    286.08027   -11271.551            0   -10419.653   -20659.216    745.57579    9.0677026    9.0677026    9.0677026    32.330952 
  605200    304.72485   -11319.446            0   -10412.027   -13955.672    744.56588    9.0636065    9.0636065    9.0636065    29.037847 
  605300    294.48011    -11277.44            0   -10400.528   -3586.3658    743.15355    9.0578721    9.0578721    9.0578721    36.302135 
  605400    313.55594   -11321.013            0   -10387.297    -525.1448    741.39642    9.0507276    9.0507276    9.0507276    32.741349 
  605500     302.9312   -11275.244            0   -10373.167    7115.1832    739.65919    9.0436529    9.0436529    9.0436529    34.993759 
  605600    306.35072   -11274.228            0   -10361.967     14479.14    738.44553    9.0387038    9.0387038    9.0387038    33.250539 
  605700    308.57815    -11273.52            0   -10354.627    15874.365    738.01184     9.036934     9.036934     9.036934    35.992526 
  605800    304.36152   -11257.009            0   -10350.672    9376.6119    738.44884    9.0387173    9.0387173    9.0387173    31.299189 
  605900    303.07518   -11251.968            0   -10349.462   -2762.8184    739.68477    9.0437572    9.0437572    9.0437572    35.899178 
  606000    305.78674   -11260.383            0   -10349.802    2399.4808    741.21846    9.0500034    9.0500034    9.0500034    33.633824 
  606100    313.77056   -11284.536            0   -10350.181   -802.39908    743.18195    9.0579875    9.0579875    9.0579875    34.595995 
  606200     302.8673   -11253.273            0   -10351.386   -360.88171    745.11647    9.0658401    9.0658401    9.0658401    28.456738 
  606300    308.20344   -11272.466            0   -10354.689   -6651.5717    746.87334    9.0729598    9.0729598    9.0729598    32.707091 
  606400    297.17928   -11241.673            0   -10356.724   -16882.447    747.91614    9.0771804    9.0771804    9.0771804    33.221363 
  606500    292.56298   -11231.928            0   -10360.725   -14382.229    747.82656     9.076818     9.076818     9.076818    31.324669 
  606600    300.27328   -11257.648            0   -10363.485   -18289.535    746.65101    9.0720594    9.0720594    9.0720594    35.091336 
  606700    302.16573   -11266.324            0   -10366.527   -17576.583    744.25124    9.0623296    9.0623296    9.0623296    33.264132 
  606800    301.40603   -11267.235            0   -10369.699    9356.1979    741.01191    9.0491627    9.0491627    9.0491627    34.672206 
  606900    312.15077   -11302.095            0   -10372.563    15199.428    738.06353     9.037145     9.037145     9.037145    32.206536 
  607000    296.46378   -11256.336            0   -10373.518    14681.449    736.23959    9.0296945    9.0296945    9.0296945    31.541249 
Loop time of 3233.55 on 4 procs for 100000 steps with 1000 atoms

Performance: 2.672 ns/day, 8.982 hours/ns, 30.926 timesteps/s
86.6% CPU use with 4 MPI tasks x no OpenMP threads

MPI task timing breakdown:
Section |  min time  |  avg time  |  max time  |%varavg| %total
---------------------------------------------------------------
Pair    | 962.41     | 978.29     | 1010.3     |  61.7 | 30.25
Neigh   | 365.84     | 372.43     | 384.87     |  40.1 | 11.52
Comm    | 142.07     | 186.54     | 208.83     | 197.8 |  5.77
Output  | 1161.8     | 1294.1     | 1690.2     | 635.8 | 40.02
Modify  | 4.3952     | 400.55     | 532.82     |1142.8 | 12.39
Other   |            | 1.65       |            |       |  0.05

Nlocal:    250 ave 254 max 241 min
Histogram: 1 0 0 0 0 0 0 0 1 2
Nghost:    3121.5 ave 3134 max 3112 min
Histogram: 1 0 1 0 1 0 0 0 0 1
Neighs:    0 ave 0 max 0 min
Histogram: 4 0 0 0 0 0 0 0 0 0
FullNghs:  80112.5 ave 81293 max 77320 min
Histogram: 1 0 0 0 0 0 0 0 1 2

Total # of neighbors = 320450
Ave neighs/atom = 320.45
Neighbor list builds = 100000
Dangerous builds not checked
Total wall time: 5:36:43
