LAMMPS (16 Mar 2018)
Reading data file ...
  orthogonal box = (-4.72912 -4.72912 -4.72912) to (4.72912 4.72912 4.72912)
  2 by 2 by 4 MPI processor grid
  reading atoms ...
  1000 atoms
Reading potential file /home/fs01/ajm529/lammps-16Mar18/potentials/sw_potentials/AG/eps2.23.sw with DATE: 2008-01-29
Neighbor list info ...
  update every 1 steps, delay 0 steps, check no
  max neighbors/atom: 2000, page size: 100000
  master list distance cutoff = 3.836
  ghost atom cutoff = 3.836
  binsize = 1.918, bins = 5 5 5
  1 neighbor lists, perpetual/occasional/extra = 1 0 0
  (1) pair sw, perpetual
      attributes: full, newton on
      pair build: full/bin/atomonly
      stencil: full/bin/3d
      bin: standard
Setting up Verlet run ...
  Unit style    : real
  Current step  : 0
  Time step     : 1
Per MPI rank memory allocation (min/avg/max) = 3.518 | 3.586 | 4.578 Mbytes
Step Temp E_pair E_mol TotEng Press Volume Lx Ly Lz S/CPU 
       0          300   -10062.136            0   -9168.7876   -35130.873    846.11726    9.4582368    9.4582368    9.4582368            0 
     100     329.0343   -10154.587            0   -9174.7795   -42162.514    844.01831    9.4504094    9.4504094    9.4504094    55.809478 
     200     326.7159   -10164.433            0   -9191.5287   -40293.162    838.18225     9.428577     9.428577     9.428577    75.974346 
     300    336.71216   -10217.829            0   -9215.1577   -30333.785    829.00069    9.3940232    9.3940232    9.3940232    66.545667 
     400    338.37206   -10249.163            0   -9241.5488   -25099.563    818.04755     9.352467     9.352467     9.352467    72.749978 
     500    347.07123   -10295.063            0   -9261.5439   -574.72795    807.32025    9.3114064    9.3114064    9.3114064    82.467018 
     600    335.80525   -10276.132            0   -9276.1609     6445.723    798.49484    9.2773521    9.2773521    9.2773521    58.640698 
     700    332.59095   -10283.718            0   -9293.3189    20607.011    792.28838    9.2532528    9.2532528    9.2532528    66.409636 
     800    347.37794   -10348.633            0   -9314.2007    16160.261    788.55719    9.2387042    9.2387042    9.2387042    68.111721 
     900     344.5189   -10362.313            0   -9336.3943    14161.821    787.08524    9.2329523    9.2329523    9.2329523    56.894631 
    1000    331.67974   -10347.615            0    -9359.929    19878.466    787.08488    9.2329508    9.2329508    9.2329508    79.706461 
Loop time of 14.8895 on 16 procs for 1000 steps with 1000 atoms

Performance: 5.803 ns/day, 4.136 hours/ns, 67.161 timesteps/s
94.7% CPU use with 16 MPI tasks x no OpenMP threads

MPI task timing breakdown:
Section |  min time  |  avg time  |  max time  |%varavg| %total
---------------------------------------------------------------
Pair    | 1.5122     | 1.615      | 1.7048     |   4.1 | 10.85
Neigh   | 0.63639    | 0.67155    | 0.70737    |   2.5 |  4.51
Comm    | 0.69039    | 0.81587    | 0.95404    |   8.0 |  5.48
Output  | 8.0004     | 8.2372     | 11.736     |  31.5 | 55.32
Modify  | 0.042622   | 3.5414     | 3.7781     |  48.0 | 23.78
Other   |            | 0.008554   |            |       |  0.06

Nlocal:    62.5 ave 68 max 58 min
Histogram: 3 0 1 1 2 3 2 2 1 1
Nghost:    1855.94 ave 1868 max 1843 min
Histogram: 2 0 2 2 2 1 3 0 1 3
Neighs:    0 ave 0 max 0 min
Histogram: 16 0 0 0 0 0 0 0 0 0
FullNghs:  18767.5 ave 20421 max 17276 min
Histogram: 2 1 1 2 2 3 1 2 1 1

Total # of neighbors = 300280
Ave neighs/atom = 300.28
Neighbor list builds = 1000
Dangerous builds not checked
Setting up Verlet run ...
  Unit style    : real
  Current step  : 1000
  Time step     : 1
Per MPI rank memory allocation (min/avg/max) = 3.52 | 4.411 | 4.58 Mbytes
Step Temp E_pair E_mol TotEng Press Volume Lx Ly Lz S/CPU 
    1000    331.67974   -10347.615            0    -9359.929    19878.466    787.08488    9.2329508    9.2329508    9.2329508            0 
    1100    335.40522   -10383.908            0   -9385.1285     9420.031    788.30999    9.2377388    9.2377388    9.2377388    67.148345 
    1200    324.73636   -10373.115            0   -9406.1059    7878.1005     790.2786     9.245422     9.245422     9.245422    62.247008 
    1300    324.63369   -10396.073            0   -9429.3696   -10093.249    792.11989    9.2525969    9.2525969    9.2525969    81.337412 
    1400     323.2391   -10412.809            0   -9450.2581   -3046.1925    793.57037     9.258241     9.258241     9.258241    63.988805 
    1500    309.33481   -10390.532            0   -9469.3858    -20020.86    794.81984    9.2630975    9.2630975    9.2630975    63.052228 
    1600    310.93758   -10412.551            0   -9486.6318   -17697.117    795.13693    9.2643291    9.2643291    9.2643291    80.160312 
    1700    306.86797   -10417.559            0    -9503.759   -15441.649    794.62208    9.2623291    9.2623291    9.2623291    52.420929 
    1800    298.10632   -10406.853            0   -9519.1428   -10934.432    793.38191     9.257508     9.257508     9.257508    75.857204 
    1900    309.16081    -10456.01            0   -9535.3823   -3537.7731    791.61687    9.2506379    9.2506379    9.2506379    74.770705 
    2000    310.94979   -10476.555            0   -9550.5993   -1637.9518    789.41266     9.242044     9.242044     9.242044    57.946018 
Loop time of 15.0105 on 16 procs for 1000 steps with 1000 atoms

Performance: 5.756 ns/day, 4.170 hours/ns, 66.620 timesteps/s
94.7% CPU use with 16 MPI tasks x no OpenMP threads

MPI task timing breakdown:
Section |  min time  |  avg time  |  max time  |%varavg| %total
---------------------------------------------------------------
Pair    | 1.5718     | 1.6722     | 1.8701     |   5.7 | 11.14
Neigh   | 0.64317    | 0.67207    | 0.73783    |   2.8 |  4.48
Comm    | 0.6117     | 0.87032    | 0.99788    |  10.2 |  5.80
Output  | 7.8924     | 8.1361     | 11.737     |  32.6 | 54.20
Modify  | 0.044539   | 3.6513     | 3.8969     |  48.7 | 24.33
Other   |            | 0.008556   |            |       |  0.06

Nlocal:    62.5 ave 70 max 56 min
Histogram: 1 0 1 4 3 5 0 1 0 1
Nghost:    1843.5 ave 1869 max 1825 min
Histogram: 2 2 2 1 1 4 1 2 0 1
Neighs:    0 ave 0 max 0 min
Histogram: 16 0 0 0 0 0 0 0 0 0
FullNghs:  18678.8 ave 20888 max 16676 min
Histogram: 1 0 1 4 3 4 2 0 0 1

Total # of neighbors = 298860
Ave neighs/atom = 298.86
Neighbor list builds = 1000
Dangerous builds not checked
Setting up Verlet run ...
  Unit style    : real
  Current step  : 2000
  Time step     : 1
Per MPI rank memory allocation (min/avg/max) = 4.577 | 4.578 | 4.58 Mbytes
Step Temp E_pair E_mol TotEng Press Volume Lx Ly Lz S/CPU 
    2000    310.94979   -10476.555            0   -9550.5993   -1637.9518    789.41266     9.242044     9.242044     9.242044            0 
    2100    293.67339   -10438.792            0   -9564.2832    1391.6269    787.04253    9.2327853    9.2327853    9.2327853    76.482624 
    2200    300.21591   -10471.256            0   -9577.2645    4791.5961     785.0572    9.2250154    9.2250154    9.2250154    75.417313 
    2300    282.01747   -10428.732            0   -9588.9321    23292.374    784.05206    9.2210767    9.2210767    9.2210767    62.238606 
    2400    296.22165   -10483.625            0   -9601.5277   -894.67375    784.14229    9.2214304    9.2214304    9.2214304    76.041429 
    2500    302.69546   -10514.825            0   -9613.4501    633.81252    784.51378    9.2228864    9.2228864    9.2228864    61.757907 
    2600    298.55231   -10512.224            0   -9623.1857   -7293.5282    785.03002    9.2249089    9.2249089    9.2249089    82.044575 
    2700    304.71452   -10539.307            0   -9631.9191    1347.1797    785.35666    9.2261882    9.2261882    9.2261882     76.21405 
    2800    293.96042    -10514.86            0   -9639.4965   -437.95862     785.4202     9.226437     9.226437     9.226437    68.822126 
    2900    290.24562   -10508.792            0   -9644.4902   -7246.4708    785.48209    9.2266794    9.2266794    9.2266794    75.967878 
    3000    292.65205   -10520.143            0   -9648.6752   -310.29773    785.44138      9.22652      9.22652      9.22652    91.601424 
Loop time of 13.5665 on 16 procs for 1000 steps with 1000 atoms

Performance: 6.369 ns/day, 3.768 hours/ns, 73.711 timesteps/s
94.9% CPU use with 16 MPI tasks x no OpenMP threads

MPI task timing breakdown:
Section |  min time  |  avg time  |  max time  |%varavg| %total
---------------------------------------------------------------
Pair    | 1.6628     | 1.7434     | 1.8451     |   3.8 | 12.85
Neigh   | 0.66564    | 0.69106    | 0.72043    |   1.8 |  5.09
Comm    | 0.70756    | 0.8339     | 0.93626    |   6.9 |  6.15
Output  | 6.8452     | 7.0631     | 10.236     |  30.8 | 52.06
Modify  | 0.05134    | 3.2263     | 3.4475     |  45.6 | 23.78
Other   |            | 0.008705   |            |       |  0.06

Nlocal:    62.5 ave 68 max 56 min
Histogram: 1 0 1 2 3 3 2 1 0 3
Nghost:    1844.81 ave 1865 max 1825 min
Histogram: 1 3 0 2 3 0 3 0 2 2
Neighs:    0 ave 0 max 0 min
Histogram: 16 0 0 0 0 0 0 0 0 0
FullNghs:  18780.2 ave 20466 max 16708 min
Histogram: 1 0 1 2 5 0 3 1 1 2

Total # of neighbors = 300484
Ave neighs/atom = 300.484
Neighbor list builds = 1000
Dangerous builds not checked
Setting up Verlet run ...
  Unit style    : real
  Current step  : 3000
  Time step     : 1
Per MPI rank memory allocation (min/avg/max) = 4.577 | 4.579 | 4.58 Mbytes
Step Temp E_pair E_mol TotEng Press Volume Lx Ly Lz S/CPU 
    3000    292.65205   -10520.143            0   -9648.6752   -310.29773    785.44138      9.22652      9.22652      9.22652            0 
    3100     302.0775   -10552.079            0   -9652.5439   -1638.9368    785.12622    9.2252858    9.2252858    9.2252858     88.06646 
    3200    296.54197   -10536.671            0   -9653.6196    5758.4917    784.61745    9.2232926    9.2232926    9.2232926    61.451351 
    3300    301.64109   -10552.551            0   -9654.3153    3586.3759    784.30532    9.2220694    9.2220694    9.2220694    79.249186 
    3400    287.21651   -10507.606            0   -9652.3245   -13630.609    784.09132    9.2212306    9.2212306    9.2212306    59.616692 
    3500    292.51288   -10518.954            0   -9647.9006    -13108.78    783.77779    9.2200013    9.2200013    9.2200013    77.143244 
    3600    283.48302   -10487.447            0   -9643.2826   -10651.767    783.40345    9.2185332    9.2185332    9.2185332    77.627544 
    3700    291.45792   -10504.261            0    -9636.349    3475.0555    782.66669    9.2156425    9.2156425    9.2156425    58.988609 
    3800    291.83801   -10496.375            0   -9627.3314    23644.438    781.86005    9.2124754    9.2124754    9.2124754     83.57152 
    3900    305.28183   -10526.951            0   -9617.8743    13540.215    781.91942    9.2127086    9.2127086    9.2127086    81.879821 
    4000    303.25709   -10510.213            0   -9607.1655   -2690.2668    782.89858    9.2165525    9.2165525    9.2165525    74.506759 
Loop time of 13.7418 on 16 procs for 1000 steps with 1000 atoms

Performance: 6.287 ns/day, 3.817 hours/ns, 72.770 timesteps/s
94.9% CPU use with 16 MPI tasks x no OpenMP threads

MPI task timing breakdown:
Section |  min time  |  avg time  |  max time  |%varavg| %total
---------------------------------------------------------------
Pair    | 1.6635     | 1.7478     | 1.8897     |   4.6 | 12.72
Neigh   | 0.66138    | 0.69139    | 0.73586    |   2.2 |  5.03
Comm    | 0.65981    | 0.8461     | 0.95284    |   8.4 |  6.16
Output  | 6.6389     | 6.8769     | 10.394     |  34.6 | 50.04
Modify  | 0.053141   | 3.5707     | 3.809      |  48.1 | 25.98
Other   |            | 0.008943   |            |       |  0.07

Nlocal:    62.5 ave 69 max 58 min
Histogram: 2 1 4 3 2 0 1 1 1 1
Nghost:    1869.5 ave 1898 max 1844 min
Histogram: 2 0 3 1 1 5 1 0 2 1
Neighs:    0 ave 0 max 0 min
Histogram: 16 0 0 0 0 0 0 0 0 0
FullNghs:  18848.8 ave 20843 max 17363 min
Histogram: 1 1 3 4 3 0 1 1 1 1

Total # of neighbors = 301580
Ave neighs/atom = 301.58
Neighbor list builds = 1000
Dangerous builds not checked
Setting up Verlet run ...
  Unit style    : real
  Current step  : 4000
  Time step     : 1
Per MPI rank memory allocation (min/avg/max) = 4.577 | 4.579 | 4.58 Mbytes
Step Temp E_pair E_mol TotEng Press Volume Lx Ly Lz S/CPU 
    4000    303.25709   -10510.213            0   -9607.1655   -2690.2668    782.89858    9.2165525    9.2165525    9.2165525            0 
    4100    293.29728   -10469.576            0   -9596.1863      63.0618    784.59123    9.2231899    9.2231899    9.2231899    68.089117 
    4200    302.47018   -10488.601            0   -9587.8964    667.70834    786.65504    9.2312698    9.2312698    9.2312698    76.773113 
    4300    305.44926   -10488.666            0   -9579.0899   -5742.5497    788.74984    9.2394566    9.2394566    9.2394566    56.435114 
    4400     315.6193   -10510.697            0   -9570.8369   -10192.516    790.26471    9.2453679    9.2453679    9.2453679    56.606243 
    4500    309.06059   -10483.273            0   -9562.9432   -3827.8466    790.78745    9.2474059    9.2474059    9.2474059    52.721811 
    4600    302.41184   -10455.887            0   -9555.3558   -18165.467     790.6788    9.2469824    9.2469824    9.2469824    62.344878 
    4700    309.23474   -10472.167            0    -9551.319   -8339.9185    789.62112    9.2428574    9.2428574    9.2428574    57.779648 
    4800    303.07876   -10448.769            0    -9546.252   -15555.782    787.70858     9.235389     9.235389     9.235389     59.37883 
    4900    310.64362   -10466.695            0   -9541.6513    2245.8169    785.27906    9.2258843    9.2258843    9.2258843    65.072319 
    5000    307.83593    -10453.75            0   -9537.0667   -645.28202    782.94626    9.2167396    9.2167396    9.2167396    69.487232 
Loop time of 16.2012 on 16 procs for 1000 steps with 1000 atoms

Performance: 5.333 ns/day, 4.500 hours/ns, 61.724 timesteps/s
94.7% CPU use with 16 MPI tasks x no OpenMP threads

MPI task timing breakdown:
Section |  min time  |  avg time  |  max time  |%varavg| %total
---------------------------------------------------------------
Pair    | 1.5908     | 1.7347     | 1.8204     |   4.7 | 10.71
Neigh   | 0.6451     | 0.69077    | 0.71814    |   2.6 |  4.26
Comm    | 0.73602    | 0.84886    | 1.0379     |   8.9 |  5.24
Output  | 8.3129     | 8.6007     | 12.864     |  37.5 | 53.09
Modify  | 0.051658   | 4.3175     | 4.6059     |  53.0 | 26.65
Other   |            | 0.0087     |            |       |  0.05

Nlocal:    62.5 ave 65 max 59 min
Histogram: 2 0 0 3 0 4 2 0 0 5
Nghost:    1857.94 ave 1870 max 1850 min
Histogram: 2 3 2 1 2 2 1 0 1 2
Neighs:    0 ave 0 max 0 min
Histogram: 16 0 0 0 0 0 0 0 0 0
FullNghs:  18860.1 ave 19744 max 17632 min
Histogram: 2 0 0 3 1 3 2 0 0 5

Total # of neighbors = 301762
Ave neighs/atom = 301.762
Neighbor list builds = 1000
Dangerous builds not checked
Setting up Verlet run ...
  Unit style    : real
  Current step  : 5000
  Time step     : 1
Per MPI rank memory allocation (min/avg/max) = 4.577 | 4.579 | 4.58 Mbytes
Step Temp E_pair E_mol TotEng Press Volume Lx Ly Lz S/CPU 
    5000    307.83593    -10453.75            0   -9537.0667   -645.28202    782.94626    9.2167396    9.2167396    9.2167396            0 
    5100    308.47793   -10454.274            0   -9535.6798    5760.9725    781.04359    9.2092676    9.2092676    9.2092676    59.935862 
    5200    310.58482   -10460.204            0   -9535.3358   -217.45976    779.89046    9.2047331    9.2047331    9.2047331     69.67777 
    5300    305.06502    -10445.69            0   -9537.2584    15246.162    779.39008    9.2027641    9.2027641    9.2027641    57.801821 
    5400    308.97962   -10460.627            0   -9540.5384     15042.51    779.67545    9.2038872    9.2038872    9.2038872    58.803718 
    5500    309.36822   -10469.417            0   -9548.1712   -784.16367    780.72339    9.2080089    9.2080089    9.2080089    61.151395 
    5600    315.40792   -10497.153            0   -9557.9224    7812.6154     782.0341    9.2131589    9.2131589    9.2131589    53.472017 
    5700    310.10171   -10493.476            0   -9570.0457   -6536.5043    783.66956    9.2195769    9.2195769    9.2195769    61.681047 
    5800    300.26198   -10476.742            0   -9582.6132    3591.3252    785.21139    9.2256193    9.2256193    9.2256193    67.188704 
    5900    300.07996   -10485.868            0   -9592.2808   -7426.7502    786.66747    9.2313184    9.2313184    9.2313184    74.507782 
    6000    296.41812   -10484.035            0   -9601.3527    -8472.093    787.35589    9.2340104    9.2340104    9.2340104    66.058657 
Loop time of 16.0052 on 16 procs for 1000 steps with 1000 atoms

Performance: 5.398 ns/day, 4.446 hours/ns, 62.480 timesteps/s
94.7% CPU use with 16 MPI tasks x no OpenMP threads

MPI task timing breakdown:
Section |  min time  |  avg time  |  max time  |%varavg| %total
---------------------------------------------------------------
Pair    | 1.6139     | 1.7373     | 1.884      |   6.2 | 10.85
Neigh   | 0.65098    | 0.68487    | 0.72645    |   2.7 |  4.28
Comm    | 0.66992    | 0.85908    | 1.0131     |  11.3 |  5.37
Output  | 8.2505     | 8.5301     | 12.671     |  36.6 | 53.30
Modify  | 0.045274   | 4.1851     | 4.4649     |  52.2 | 26.15
Other   |            | 0.008711   |            |       |  0.05

Nlocal:    62.5 ave 69 max 53 min
Histogram: 1 0 1 1 1 4 3 0 3 2
Nghost:    1848.12 ave 1872 max 1822 min
Histogram: 1 2 1 2 1 2 1 2 2 2
Neighs:    0 ave 0 max 0 min
Histogram: 16 0 0 0 0 0 0 0 0 0
FullNghs:  18757 ave 20869 max 15690 min
Histogram: 1 0 1 0 4 2 2 2 3 1

Total # of neighbors = 300112
Ave neighs/atom = 300.112
Neighbor list builds = 1000
Dangerous builds not checked
Setting up Verlet run ...
  Unit style    : real
  Current step  : 6000
  Time step     : 1
Per MPI rank memory allocation (min/avg/max) = 4.577 | 4.579 | 4.58 Mbytes
Step Temp E_pair E_mol TotEng Press Volume Lx Ly Lz S/CPU 
    6000    296.41812   -10484.035            0   -9601.3527    -8472.093    787.35589    9.2340104    9.2340104    9.2340104            0 
    6100     297.6035   -10494.672            0     -9608.46    6122.4987    787.24663    9.2335833    9.2335833    9.2335833    73.291674 
    6200    295.45779   -10491.775            0    -9611.952      3942.89    787.08554    9.2329534    9.2329534    9.2329534     55.38961 
    6300    300.62996   -10510.305            0   -9615.0798    15343.023    787.05009    9.2328148    9.2328148    9.2328148    70.940185 
    6400    287.42379   -10472.016            0   -9616.1175   -3231.6601    787.70339    9.2353687    9.2353687    9.2353687    54.674902 
    6500    294.99376   -10493.685            0   -9615.2438   -13885.296    788.49298    9.2384535    9.2384535    9.2384535    67.923731 
    6600    286.78696   -10466.403            0   -9612.4006      -4060.2     788.5583    9.2387086    9.2387086    9.2387086    63.832579 
    6700    289.99912   -10473.971            0   -9610.4032    61.426544    788.36431    9.2379509    9.2379509    9.2379509    60.410831 
    6800    289.65079   -10468.947            0   -9606.4166   -1757.7102    788.10717    9.2369464    9.2369464    9.2369464    62.031729 
    6900    294.69041   -10479.474            0   -9601.9359    2639.1356    787.63599    9.2351053    9.2351053    9.2351053    81.583715 
    7000    310.26404   -10522.599            0   -9598.6859   -13730.872    786.84225     9.232002     9.232002     9.232002    60.575298 
Loop time of 15.5913 on 16 procs for 1000 steps with 1000 atoms

Performance: 5.542 ns/day, 4.331 hours/ns, 64.138 timesteps/s
94.7% CPU use with 16 MPI tasks x no OpenMP threads

MPI task timing breakdown:
Section |  min time  |  avg time  |  max time  |%varavg| %total
---------------------------------------------------------------
Pair    | 1.6095     | 1.723      | 1.9308     |   6.6 | 11.05
Neigh   | 0.64859    | 0.68663    | 0.72848    |   2.7 |  4.40
Comm    | 0.62779    | 0.87736    | 1.0292     |  11.6 |  5.63
Output  | 8.2186     | 8.4714     | 12.21      |  33.2 | 54.33
Modify  | 0.08425    | 3.824      | 4.0773     |  49.4 | 24.53
Other   |            | 0.008865   |            |       |  0.06

Nlocal:    62.5 ave 67 max 56 min
Histogram: 2 1 0 1 2 1 3 0 2 4
Nghost:    1851.25 ave 1887 max 1831 min
Histogram: 5 0 3 1 1 2 2 1 0 1
Neighs:    0 ave 0 max 0 min
Histogram: 16 0 0 0 0 0 0 0 0 0
FullNghs:  18770.9 ave 20123 max 16729 min
Histogram: 2 1 0 1 1 2 3 0 2 4

Total # of neighbors = 300334
Ave neighs/atom = 300.334
Neighbor list builds = 1000
Dangerous builds not checked
Setting up Verlet run ...
  Unit style    : real
  Current step  : 7000
  Time step     : 1
Per MPI rank memory allocation (min/avg/max) = 4.577 | 4.579 | 4.58 Mbytes
Step Temp E_pair E_mol TotEng Press Volume Lx Ly Lz S/CPU 
    7000    310.26404   -10522.599            0   -9598.6859   -13730.872    786.84225     9.232002     9.232002     9.232002            0 
    7100    303.20704   -10497.918            0   -9595.0195    4931.6841    785.63359    9.2272725    9.2272725    9.2272725    82.273263 
    7200    297.07874   -10475.974            0    -9591.324   -374.26481    784.82635    9.2241111    9.2241111    9.2241111    83.572023 
    7300    288.15242   -10446.534            0   -9588.4652   -11295.725    783.82264    9.2201772    9.2201772    9.2201772    65.788636 
    7400     297.0606    -10470.44            0   -9585.8447    11198.577    782.35268    9.2144098    9.2144098    9.2144098    73.861273 
    7500     295.0852   -10459.209            0   -9580.4958    11099.325    781.04565    9.2092757    9.2092757    9.2092757    67.000474 
    7600    304.82567   -10483.552            0   -9575.8328    6564.1139    780.02734    9.2052716    9.2052716    9.2052716    76.719611 
    7700    298.71974   -10459.565            0   -9570.0282     19292.64    779.27719    9.2023198    9.2023198    9.2023198    83.280841 
    7800    297.49368   -10448.932            0   -9563.0468    29840.182    779.10926    9.2016587    9.2016587    9.2016587    77.294546 
    7900    305.98853   -10463.685            0   -9552.5034     12638.24    780.29269    9.2063153    9.2063153    9.2063153    68.968132 
    8000    311.55905   -10465.528            0   -9537.7582   -3786.4548    782.49093    9.2149526    9.2149526    9.2149526    91.841522 
Loop time of 13.1152 on 16 procs for 1000 steps with 1000 atoms

Performance: 6.588 ns/day, 3.643 hours/ns, 76.247 timesteps/s
94.9% CPU use with 16 MPI tasks x no OpenMP threads

MPI task timing breakdown:
Section |  min time  |  avg time  |  max time  |%varavg| %total
---------------------------------------------------------------
Pair    | 1.6549     | 1.7597     | 1.8965     |   5.4 | 13.42
Neigh   | 0.65789    | 0.69291    | 0.72592    |   2.6 |  5.28
Comm    | 0.67537    | 0.8374     | 0.97558    |  10.1 |  6.38
Output  | 6.7816     | 6.9716     | 9.7691     |  27.4 | 53.16
Modify  | 0.047301   | 2.8448     | 3.0351     |  42.8 | 21.69
Other   |            | 0.008749   |            |       |  0.07

Nlocal:    62.5 ave 65 max 57 min
Histogram: 1 0 0 1 0 2 4 2 3 3
Nghost:    1870.81 ave 1890 max 1854 min
Histogram: 1 2 2 1 4 0 2 3 0 1
Neighs:    0 ave 0 max 0 min
Histogram: 16 0 0 0 0 0 0 0 0 0
FullNghs:  18874 ave 19919 max 17073 min
Histogram: 1 0 0 1 1 4 3 2 2 2

Total # of neighbors = 301984
Ave neighs/atom = 301.984
Neighbor list builds = 1000
Dangerous builds not checked
Setting up Verlet run ...
  Unit style    : real
  Current step  : 8000
  Time step     : 1
Per MPI rank memory allocation (min/avg/max) = 4.577 | 4.579 | 4.58 Mbytes
Step Temp E_pair E_mol TotEng Press Volume Lx Ly Lz S/CPU 
    8000    311.55905   -10465.528            0   -9537.7582   -3786.4548    782.49093    9.2149526    9.2149526    9.2149526            0 
    8100    318.93446   -10473.227            0   -9523.4948   -13885.925    784.82502    9.2241059    9.2241059    9.2241059    87.178831 
    8200    326.04287   -10483.529            0   -9512.6287   -810.76492     787.0344    9.2327535    9.2327535    9.2327535    63.509991 
    8300    322.35881   -10465.716            0   -9505.7863    6674.8347    789.56789    9.2426497    9.2426497    9.2426497    76.011243 
    8400    308.81333   -10419.955            0   -9500.3617     826.9393    792.63594    9.2546057    9.2546057    9.2546057    81.833409 
    8500    308.21928     -10417.2            0   -9499.3757   -7080.6914    795.43756    9.2654966    9.2654966    9.2654966    57.605779 
    8600    311.45304   -10428.851            0   -9501.3974   -10893.106    797.34445    9.2728946    9.2728946    9.2728946     96.76347 
    8700    301.56873   -10402.897            0   -9504.8768    -7637.135     798.0393    9.2755875    9.2755875    9.2755875    84.346871 
    8800    312.99969   -10443.844            0   -9511.7844   -22873.468    797.40345    9.2731234    9.2731234    9.2731234    58.783245 
    8900    305.63756   -10431.306            0     -9521.17   -20768.306    795.42572    9.2654506    9.2654506    9.2654506    63.888888 
    9000    313.01391   -10466.702            0   -9534.5996   -6493.2782    791.98231    9.2520611    9.2520611    9.2520611    72.024351 
Loop time of 13.8698 on 16 procs for 1000 steps with 1000 atoms

Performance: 6.229 ns/day, 3.853 hours/ns, 72.099 timesteps/s
94.8% CPU use with 16 MPI tasks x no OpenMP threads

MPI task timing breakdown:
Section |  min time  |  avg time  |  max time  |%varavg| %total
---------------------------------------------------------------
Pair    | 1.5913     | 1.7041     | 1.8433     |   5.5 | 12.29
Neigh   | 0.65396    | 0.68309    | 0.73527    |   2.9 |  4.92
Comm    | 0.66242    | 0.85421    | 0.9959     |  10.3 |  6.16
Output  | 6.733      | 6.9755     | 10.558     |  35.0 | 50.29
Modify  | 0.059488   | 3.6436     | 3.8865     |  48.5 | 26.27
Other   |            | 0.009356   |            |       |  0.07

Nlocal:    62.5 ave 69 max 57 min
Histogram: 3 0 3 0 2 2 3 1 1 1
Nghost:    1844.31 ave 1859 max 1830 min
Histogram: 2 0 0 2 5 3 2 1 0 1
Neighs:    0 ave 0 max 0 min
Histogram: 16 0 0 0 0 0 0 0 0 0
FullNghs:  18636.8 ave 20689 max 16857 min
Histogram: 2 1 3 0 2 2 3 1 1 1

Total # of neighbors = 298188
Ave neighs/atom = 298.188
Neighbor list builds = 1000
Dangerous builds not checked
Setting up Verlet run ...
  Unit style    : real
  Current step  : 9000
  Time step     : 1
Per MPI rank memory allocation (min/avg/max) = 4.577 | 4.579 | 4.58 Mbytes
Step Temp E_pair E_mol TotEng Press Volume Lx Ly Lz S/CPU 
    9000    313.01391   -10466.702            0   -9534.5996   -6493.2782    791.98231    9.2520611    9.2520611    9.2520611            0 
    9100    312.66523   -10480.488            0   -9549.4247   -1174.4473    787.43915    9.2343359    9.2343359    9.2343359    67.723508 
    9200    300.55232   -10456.695            0   -9561.7018    10419.506    782.57022    9.2152638    9.2152638    9.2152638    80.778206 
    9300    303.83196   -10477.416            0   -9572.6566    10715.022     778.3071    9.1984997    9.1984997    9.1984997    57.980497 
    9400      309.247   -10500.813            0    -9579.928    28527.963    775.39273    9.1870041    9.1870041    9.1870041    67.207702 
    9500    303.18325   -10489.051            0   -9586.2234    29928.194    774.35146    9.1828898    9.1828898    9.1828898    81.757891 
    9600    307.85229   -10508.631            0   -9591.8994    22854.518     775.2301    9.1863617    9.1863617    9.1863617    60.238057 
    9700    291.05047   -10464.765            0   -9598.0668    3733.6617    777.91597    9.1969585    9.1969585    9.1969585     88.55982 
    9800    305.32221   -10514.539            0   -9605.3413    21496.883    781.63017    9.2115724    9.2115724    9.2115724    89.614622 
    9900    299.75618   -10502.561            0   -9609.9387    5506.6471    785.84992    9.2281194    9.2281194    9.2281194    51.225654 
   10000     302.4245   -10514.076            0   -9613.5075    3573.6018    790.11919    9.2448004    9.2448004    9.2448004     78.52969 
Loop time of 14.281 on 16 procs for 1000 steps with 1000 atoms

Performance: 6.050 ns/day, 3.967 hours/ns, 70.023 timesteps/s
94.8% CPU use with 16 MPI tasks x no OpenMP threads

MPI task timing breakdown:
Section |  min time  |  avg time  |  max time  |%varavg| %total
---------------------------------------------------------------
Pair    | 1.6856     | 1.7592     | 1.8818     |   4.5 | 12.32
Neigh   | 0.66464    | 0.69013    | 0.74494    |   2.7 |  4.83
Comm    | 0.67856    | 0.85552    | 0.95139    |   8.8 |  5.99
Output  | 7.2825     | 7.5139     | 10.932     |  32.2 | 52.61
Modify  | 0.034811   | 3.4536     | 3.6852     |  47.5 | 24.18
Other   |            | 0.008711   |            |       |  0.06

Nlocal:    62.5 ave 67 max 56 min
Histogram: 1 0 1 1 1 3 6 0 0 3
Nghost:    1838.38 ave 1861 max 1820 min
Histogram: 1 1 2 4 2 2 2 0 1 1
Neighs:    0 ave 0 max 0 min
Histogram: 16 0 0 0 0 0 0 0 0 0
FullNghs:  18668 ave 20200 max 16535 min
Histogram: 1 0 0 2 2 3 5 0 1 2

Total # of neighbors = 298688
Ave neighs/atom = 298.688
Neighbor list builds = 1000
Dangerous builds not checked
Setting up Verlet run ...
  Unit style    : real
  Current step  : 10000
  Time step     : 1
Per MPI rank memory allocation (min/avg/max) = 4.577 | 4.579 | 4.58 Mbytes
Step Temp E_pair E_mol TotEng Press Volume Lx Ly Lz S/CPU 
   10000     302.4245   -10514.076            0   -9613.5075    3573.6018    790.11919    9.2448004    9.2448004    9.2448004            0 
   10100    298.32462   -10505.832            0   -9617.4721   -14420.971    793.81433    9.2591896    9.2591896    9.2591896    74.781128 
   10200    294.10462   -10494.061            0   -9618.2677   -6038.4361    796.55171    9.2698205    9.2698205    9.2698205    63.465723 
   10300    293.53508   -10493.219            0   -9619.1218   -23892.972    798.41225    9.2770322    9.2770322    9.2770322     73.68415 
   10400    288.29209   -10478.005            0     -9619.52   -20415.739    799.00908    9.2793432    9.2793432    9.2793432    74.274205 
   10500    290.85062   -10484.978            0   -9618.8741   -29945.448    798.44315    9.2771519    9.2771519    9.2771519    63.250657 
   10600    294.22989   -10492.678            0   -9616.5115    -24179.35    796.02572    9.2677797    9.2677797    9.2677797    95.205634 
   10700    306.35193   -10524.225            0   -9611.9616   -9031.0083     792.4151    9.2537461    9.2537461    9.2537461    85.867859 
   10800    305.25371   -10513.327            0   -9604.3336   -16941.417    788.49909    9.2384774    9.2384774    9.2384774    57.891643 
   10900    287.67732   -10451.041            0   -9594.3875   -4848.7467    784.36929    9.2223201    9.2223201    9.2223201    84.272572 
   11000    303.72578   -10489.576            0   -9585.1324    17762.255    780.57491    9.2074251    9.2074251    9.2074251    77.172133 
Loop time of 13.6222 on 16 procs for 1000 steps with 1000 atoms

Performance: 6.343 ns/day, 3.784 hours/ns, 73.410 timesteps/s
94.8% CPU use with 16 MPI tasks x no OpenMP threads

MPI task timing breakdown:
Section |  min time  |  avg time  |  max time  |%varavg| %total
---------------------------------------------------------------
Pair    | 1.527      | 1.6981     | 1.8429     |   6.1 | 12.47
Neigh   | 0.64111    | 0.68426    | 0.73655    |   3.2 |  5.02
Comm    | 0.65574    | 0.85229    | 1.066      |  11.3 |  6.26
Output  | 7.1033     | 7.309      | 10.341     |  29.0 | 53.65
Modify  | 0.03721    | 3.07       | 3.2757     |  44.7 | 22.54
Other   |            | 0.008624   |            |       |  0.06

Nlocal:    62.5 ave 68 max 59 min
Histogram: 1 4 1 3 2 2 1 0 1 1
Nghost:    1854.69 ave 1865 max 1845 min
Histogram: 1 2 1 3 2 1 1 2 0 3
Neighs:    0 ave 0 max 0 min
Histogram: 16 0 0 0 0 0 0 0 0 0
FullNghs:  18911.1 ave 20585 max 17731 min
Histogram: 1 4 1 3 2 2 1 0 0 2

Total # of neighbors = 302578
Ave neighs/atom = 302.578
Neighbor list builds = 1000
Dangerous builds not checked
Setting up Verlet run ...
  Unit style    : real
  Current step  : 11000
  Time step     : 1
Per MPI rank memory allocation (min/avg/max) = 4.577 | 4.579 | 4.58 Mbytes
Step Temp E_pair E_mol TotEng Press Volume Lx Ly Lz S/CPU 
   11000    303.72578   -10489.576            0   -9585.1324    17762.255    780.57491    9.2074251    9.2074251    9.2074251            0 
   11100    298.10894   -10462.253            0   -9574.5358    18112.477    777.76262    9.1963542    9.1963542    9.1963542    72.631136 
   11200    293.09825   -10438.956            0   -9566.1598    23639.986    776.08287    9.1897289    9.1897289    9.1897289    85.356914 
   11300    306.27446    -10472.23            0   -9560.1966    15143.318    775.44739    9.1872199    9.1872199    9.1872199    62.424143 
   11400    315.76313   -10496.392            0   -9556.1035    18679.718    775.90561    9.1890292    9.1890292    9.1890292    83.503339 
   11500    304.83191   -10460.489            0   -9552.7512    18394.629    777.53462    9.1954554    9.1954554    9.1954554    74.640391 
   11600    302.75399   -10453.782            0   -9552.2324    -4373.014     779.8024    9.2043867    9.2043867    9.2043867    58.541971 
   11700    300.16063   -10446.503            0    -9552.676   -11732.151    781.97084    9.2129105    9.2129105    9.2129105    71.609097 
   11800    302.86621   -10456.335            0    -9554.451    -8132.062    783.52109    9.2189947    9.2189947    9.2189947    72.138542 
   11900    303.81459   -10462.771            0   -9558.0628     2738.548     784.6055    9.2232458    9.2232458    9.2232458    62.671753 
   12000    289.81455   -10426.482            0   -9563.4635    -3846.082    785.45814    9.2265856    9.2265856    9.2265856    76.527985 
Loop time of 14.0808 on 16 procs for 1000 steps with 1000 atoms

Performance: 6.136 ns/day, 3.911 hours/ns, 71.018 timesteps/s
94.8% CPU use with 16 MPI tasks x no OpenMP threads

MPI task timing breakdown:
Section |  min time  |  avg time  |  max time  |%varavg| %total
---------------------------------------------------------------
Pair    | 1.5511     | 1.7651     | 1.9537     |   7.0 | 12.54
Neigh   | 0.63384    | 0.69206    | 0.75786    |   3.4 |  4.91
Comm    | 0.60792    | 0.8622     | 1.1343     |  13.0 |  6.12
Output  | 6.9711     | 7.2072     | 10.696     |  33.6 | 51.18
Modify  | 0.055954   | 3.5456     | 3.7818     |  47.9 | 25.18
Other   |            | 0.008744   |            |       |  0.06

Nlocal:    62.5 ave 66 max 54 min
Histogram: 1 0 1 0 0 3 2 2 2 5
Nghost:    1859.81 ave 1888 max 1827 min
Histogram: 2 3 0 2 0 1 1 0 4 3
Neighs:    0 ave 0 max 0 min
Histogram: 16 0 0 0 0 0 0 0 0 0
FullNghs:  18786.6 ave 19966 max 16197 min
Histogram: 1 0 1 0 1 2 2 3 1 5

Total # of neighbors = 300586
Ave neighs/atom = 300.586
Neighbor list builds = 1000
Dangerous builds not checked
Setting up Verlet run ...
  Unit style    : real
  Current step  : 12000
  Time step     : 1
Per MPI rank memory allocation (min/avg/max) = 4.577 | 4.579 | 4.58 Mbytes
Step Temp E_pair E_mol TotEng Press Volume Lx Ly Lz S/CPU 
   12000    289.81455   -10426.482            0   -9563.4635    -3846.082    785.45814    9.2265856    9.2265856    9.2265856            0 
   12100    299.04904   -10465.832            0   -9575.3145    15083.394    786.02615    9.2288091    9.2288091    9.2288091    81.420183 
   12200    299.88076   -10482.751            0   -9589.7577   -13291.463    786.59945    9.2310523    9.2310523    9.2310523    53.747155 
   12300     306.3897   -10517.436            0   -9605.0599   -9099.0455    786.72504    9.2315436    9.2315436    9.2315436    85.919778 
   12400    291.47026   -10486.513            0   -9618.5641   -16620.625    786.41455     9.230329     9.230329     9.230329    101.32365 
   12500    295.87552   -10510.222            0   -9629.1551   -16919.077    785.05516    9.2250074    9.2250074    9.2250074    54.523956 
   12600    308.92876   -10556.679            0   -9636.7419   -2937.1548    782.81631    9.2162297    9.2162297    9.2162297    86.155002 
   12700    296.92076    -10524.76            0   -9640.5805    8536.9759    780.51054     9.207172     9.207172     9.207172    70.836922 
   12800    297.73817   -10528.121            0   -9641.5076    17953.534     778.6511    9.1998547    9.1998547    9.1998547     66.09284 
   12900     288.4134   -10500.756            0   -9641.9101    20902.092    777.65215    9.1959188    9.1959188    9.1959188    88.917637 
   13000    297.50213   -10527.364            0   -9641.4539   -1606.2885    777.29304     9.194503     9.194503     9.194503    74.970442 
Loop time of 13.6176 on 16 procs for 1000 steps with 1000 atoms

Performance: 6.345 ns/day, 3.783 hours/ns, 73.435 timesteps/s
94.9% CPU use with 16 MPI tasks x no OpenMP threads

MPI task timing breakdown:
Section |  min time  |  avg time  |  max time  |%varavg| %total
---------------------------------------------------------------
Pair    | 1.6336     | 1.7383     | 1.9025     |   5.7 | 12.77
Neigh   | 0.66123    | 0.68739    | 0.74339    |   2.9 |  5.05
Comm    | 0.66491    | 0.88201    | 1.0122     |  10.4 |  6.48
Output  | 6.9988     | 7.2053     | 10.249     |  29.3 | 52.91
Modify  | 0.049265   | 3.0959     | 3.3034     |  44.7 | 22.73
Other   |            | 0.008651   |            |       |  0.06

Nlocal:    62.5 ave 68 max 56 min
Histogram: 2 1 0 0 2 5 2 1 0 3
Nghost:    1869.88 ave 1876 max 1859 min
Histogram: 1 1 0 2 2 1 1 0 5 3
Neighs:    0 ave 0 max 0 min
Histogram: 16 0 0 0 0 0 0 0 0 0
FullNghs:  19000.9 ave 20789 max 16992 min
Histogram: 2 1 0 0 6 1 2 1 1 2

Total # of neighbors = 304014
Ave neighs/atom = 304.014
Neighbor list builds = 1000
Dangerous builds not checked
Setting up Verlet run ...
  Unit style    : real
  Current step  : 13000
  Time step     : 1
Per MPI rank memory allocation (min/avg/max) = 4.577 | 4.579 | 4.58 Mbytes
Step Temp E_pair E_mol TotEng Press Volume Lx Ly Lz S/CPU 
   13000    297.50213   -10527.364            0   -9641.4539   -1606.2885    777.29304     9.194503     9.194503     9.194503            0 
   13100    293.65711   -10512.711            0   -9638.2499   -6199.8205    777.20389    9.1941515    9.1941515    9.1941515    78.003293 
   13200    284.59487   -10480.278            0   -9632.8033    30.874093     777.2803    9.1944528    9.1944528    9.1944528    96.621021 
   13300    297.70264   -10512.663            0   -9626.1555    15122.942    777.54553    9.1954985    9.1954985    9.1954985    76.968864 
   13400     301.9763   -10517.533            0   -9618.2994     19847.39    778.59899    9.1996494    9.1996494    9.1996494     61.57979 
   13500    301.36387   -10508.222            0   -9610.8114    13571.244    780.52017    9.2072099    9.2072099    9.2072099    95.093111 
   13600     296.8634   -10487.066            0   -9603.0573   -1160.7067    782.89535    9.2165398    9.2165398    9.2165398    74.677645 
   13700    305.51834   -10504.044            0   -9594.2628   -2029.0403    785.12378    9.2252762    9.2252762    9.2252762    63.541754 
   13800    295.25211   -10465.703            0   -9586.4928    -3196.088    786.93907    9.2323807    9.2323807    9.2323807    82.340857 
   13900      285.092    -10427.24            0   -9578.2849   -16648.266    788.35512     9.237915     9.237915     9.237915    74.309305 
   14000    302.10654   -10472.861            0   -9573.2398   -2160.6642    789.03368    9.2405647    9.2405647    9.2405647    79.078743 
Loop time of 13.0293 on 16 procs for 1000 steps with 1000 atoms

Performance: 6.631 ns/day, 3.619 hours/ns, 76.750 timesteps/s
94.9% CPU use with 16 MPI tasks x no OpenMP threads

MPI task timing breakdown:
Section |  min time  |  avg time  |  max time  |%varavg| %total
---------------------------------------------------------------
Pair    | 1.6173     | 1.7513     | 1.848      |   5.0 | 13.44
Neigh   | 0.65117    | 0.69048    | 0.7214     |   2.5 |  5.30
Comm    | 0.70042    | 0.82869    | 1.0023     |   9.4 |  6.36
Output  | 6.4537     | 6.6597     | 9.6979     |  30.4 | 51.11
Modify  | 0.051379   | 3.0905     | 3.2969     |  44.6 | 23.72
Other   |            | 0.008663   |            |       |  0.07

Nlocal:    62.5 ave 67 max 58 min
Histogram: 2 1 0 1 5 2 1 1 2 1
Nghost:    1838.94 ave 1857 max 1818 min
Histogram: 2 1 1 0 0 5 3 2 0 2
Neighs:    0 ave 0 max 0 min
Histogram: 16 0 0 0 0 0 0 0 0 0
FullNghs:  18711.8 ave 20192 max 17300 min
Histogram: 2 1 1 1 4 2 1 0 3 1

Total # of neighbors = 299388
Ave neighs/atom = 299.388
Neighbor list builds = 1000
Dangerous builds not checked
Setting up Verlet run ...
  Unit style    : real
  Current step  : 14000
  Time step     : 1
Per MPI rank memory allocation (min/avg/max) = 4.577 | 4.579 | 4.58 Mbytes
Step Temp E_pair E_mol TotEng Press Volume Lx Ly Lz S/CPU 
   14000    302.10654   -10472.861            0   -9573.2398   -2160.6642    789.03368    9.2405647    9.2405647    9.2405647            0 
   14100    320.55789    -10522.13            0   -9567.5632   -29242.331    789.16921    9.2410938    9.2410938    9.2410938    81.569097 
   14200    299.28153   -10454.166            0   -9562.9571   -2952.2431     788.4542     9.238302     9.238302     9.238302    74.126489 
   14300    302.17959   -10459.537            0   -9559.6979    297.25165    787.31831    9.2338635    9.2338635    9.2338635    74.161181 
   14400    308.67518    -10476.85            0   -9557.6678   -1327.3144    786.26843    9.2297573    9.2297573    9.2297573    76.335416 
   14500    303.36328   -10459.188            0   -9555.8239    2682.5573    785.11166    9.2252287    9.2252287    9.2252287    56.565573 
   14600    304.09475   -10461.711            0   -9556.1691    1526.1244    784.06683    9.2211346    9.2211346    9.2211346    79.170388 
   14700    327.56795   -10535.236            0   -9559.7947   -5972.0533    783.31139    9.2181722    9.2181722    9.2181722    75.017244 
   14800    307.73752   -10478.973            0   -9562.5831    11091.989    782.86131    9.2164062    9.2164062    9.2164062     54.97876 
   14900    287.85187   -10420.903            0   -9563.7296    2036.1248    782.69005    9.2157341    9.2157341    9.2157341    69.500087 
   15000    305.84296    -10478.43            0   -9567.6823   -1077.9707    782.63613    9.2155225    9.2155225    9.2155225    77.808128 
Loop time of 14.1404 on 16 procs for 1000 steps with 1000 atoms

Performance: 6.110 ns/day, 3.928 hours/ns, 70.719 timesteps/s
94.8% CPU use with 16 MPI tasks x no OpenMP threads

MPI task timing breakdown:
Section |  min time  |  avg time  |  max time  |%varavg| %total
---------------------------------------------------------------
Pair    | 1.6412     | 1.7378     | 1.8621     |   5.1 | 12.29
Neigh   | 0.65522    | 0.68948    | 0.73763    |   2.4 |  4.88
Comm    | 0.67688    | 0.84831    | 0.97938    |   9.4 |  6.00
Output  | 7.352      | 7.5722     | 10.821     |  30.5 | 53.55
Modify  | 0.033399   | 3.2839     | 3.5046     |  46.3 | 23.22
Other   |            | 0.008694   |            |       |  0.06

Nlocal:    62.5 ave 68 max 58 min
Histogram: 2 1 2 2 0 2 2 3 1 1
Nghost:    1853.25 ave 1863 max 1843 min
Histogram: 3 0 0 2 3 2 0 2 1 3
Neighs:    0 ave 0 max 0 min
Histogram: 16 0 0 0 0 0 0 0 0 0
FullNghs:  18863.9 ave 20548 max 17416 min
Histogram: 2 2 2 1 1 1 3 2 1 1

Total # of neighbors = 301822
Ave neighs/atom = 301.822
Neighbor list builds = 1000
Dangerous builds not checked
Setting up Verlet run ...
  Unit style    : real
  Current step  : 15000
  Time step     : 1
Per MPI rank memory allocation (min/avg/max) = 4.577 | 4.579 | 4.58 Mbytes
Step Temp E_pair E_mol TotEng Press Volume Lx Ly Lz S/CPU 
   15000    305.84296    -10478.43            0   -9567.6823   -1077.9707    782.63613    9.2155225    9.2155225    9.2155225            0 
   15100    306.10338   -10481.315            0   -9569.7914   -11328.379    782.65851    9.2156103    9.2156103    9.2156103     54.79811 
   15200    304.19232   -10477.878            0   -9572.0449     11566.04    782.71672    9.2158388    9.2158388    9.2158388    76.554283 
   15300     296.9609   -10458.057            0   -9573.7583   -2811.8811    783.57072    9.2191893    9.2191893    9.2191893    65.782585 
   15400    303.13769   -10478.444            0   -9575.7522    5685.4169    784.75577    9.2238346    9.2238346    9.2238346    60.432457 
   15500    301.13907   -10473.068            0   -9576.3271   -299.77236    785.67343    9.2274285    9.2274285    9.2274285    78.609866 
   15600    302.76952   -10479.692            0   -9578.0965   -9110.9708    785.95743    9.2285402    9.2285402    9.2285402    58.483416 
   15700    300.20436   -10473.471            0   -9579.5136   -17720.881    785.00102    9.2247953    9.2247953    9.2247953    80.266526 
   15800    305.69503   -10490.843            0   -9580.5349   -2419.7017    782.73657    9.2159167    9.2159167    9.2159167    70.838259 
   15900    305.34827    -10493.05            0   -9583.7755    13224.175    780.20416    9.2059671    9.2059671    9.2059671    60.582799 
   16000    300.36223   -10482.185            0   -9587.7572    630.86555    778.23538    9.1982171    9.1982171    9.1982171    66.173467 
Loop time of 15.1074 on 16 procs for 1000 steps with 1000 atoms

Performance: 5.719 ns/day, 4.196 hours/ns, 66.193 timesteps/s
94.8% CPU use with 16 MPI tasks x no OpenMP threads

MPI task timing breakdown:
Section |  min time  |  avg time  |  max time  |%varavg| %total
---------------------------------------------------------------
Pair    | 1.6127     | 1.7302     | 1.8407     |   4.8 | 11.45
Neigh   | 0.64283    | 0.68324    | 0.72274    |   2.8 |  4.52
Comm    | 0.72033    | 0.87935    | 1.0335     |   9.2 |  5.82
Output  | 7.578      | 7.8412     | 11.736     |  35.9 | 51.90
Modify  | 0.078316   | 3.9647     | 4.2276     |  50.4 | 26.24
Other   |            | 0.008644   |            |       |  0.06

Nlocal:    62.5 ave 68 max 59 min
Histogram: 1 1 5 3 2 1 0 2 0 1
Nghost:    1864.25 ave 1879 max 1851 min
Histogram: 1 1 1 4 1 4 1 2 0 1
Neighs:    0 ave 0 max 0 min
Histogram: 16 0 0 0 0 0 0 0 0 0
FullNghs:  18947.6 ave 20624 max 17916 min
Histogram: 1 4 2 4 1 1 0 1 1 1

Total # of neighbors = 303162
Ave neighs/atom = 303.162
Neighbor list builds = 1000
Dangerous builds not checked
Setting up Verlet run ...
  Unit style    : real
  Current step  : 16000
  Time step     : 1
Per MPI rank memory allocation (min/avg/max) = 4.577 | 4.579 | 4.58 Mbytes
Step Temp E_pair E_mol TotEng Press Volume Lx Ly Lz S/CPU 
   16000    300.36223   -10482.185            0   -9587.7572    630.86555    778.23538    9.1982171    9.1982171    9.1982171            0 
   16100     321.6173   -10551.277            0   -9593.5554    6486.1651    776.50393    9.1913905    9.1913905    9.1913905    67.471287 
   16200    292.86223   -10470.298            0   -9598.2043    17375.118    775.19991    9.1862425    9.1862425    9.1862425    60.381188 
   16300    305.19723   -10515.365            0     -9606.54    17064.491    774.91219    9.1851058    9.1851058    9.1851058    64.264303 
   16400    291.69666   -10482.983            0   -9614.3598   -139.96897    775.92482     9.189105     9.189105     9.189105    69.429331 
   16500    298.01877   -10510.887            0   -9623.4383    4754.5277    777.44597     9.195106     9.195106     9.195106    72.022318 
   16600    294.23606   -10509.338            0   -9633.1528    3917.2653    779.57842    9.2035054    9.2035054    9.2035054    59.346001 
   16700    298.02163   -10529.603            0    -9642.146   -239.83726    781.99692    9.2130129    9.2130129    9.2130129    63.185876 
   16800    292.76204   -10519.679            0   -9647.8833   -4403.7587    784.44282    9.2226083    9.2226083    9.2226083    66.164367 
   16900    294.38613   -10527.815            0   -9651.1837   -4731.9381    786.55396    9.2308744    9.2308744    9.2308744    61.847844 
   17000    301.10735   -10550.174            0   -9653.5277    -25318.74     787.9632     9.236384     9.236384     9.236384     65.95293 
Loop time of 15.4353 on 16 procs for 1000 steps with 1000 atoms

Performance: 5.598 ns/day, 4.288 hours/ns, 64.787 timesteps/s
94.8% CPU use with 16 MPI tasks x no OpenMP threads

MPI task timing breakdown:
Section |  min time  |  avg time  |  max time  |%varavg| %total
---------------------------------------------------------------
Pair    | 1.6125     | 1.7585     | 1.907      |   5.9 | 11.39
Neigh   | 0.65643    | 0.68947    | 0.72986    |   2.5 |  4.47
Comm    | 0.67537    | 0.86364    | 1.0351     |  10.5 |  5.60
Output  | 8.0096     | 8.267      | 12.07      |  34.1 | 53.56
Modify  | 0.044642   | 3.8479     | 4.1055     |  50.1 | 24.93
Other   |            | 0.00875    |            |       |  0.06

Nlocal:    62.5 ave 68 max 58 min
Histogram: 1 1 0 5 2 2 2 0 2 1
Nghost:    1854.12 ave 1875 max 1821 min
Histogram: 1 0 2 2 3 0 0 1 4 3
Neighs:    0 ave 0 max 0 min
Histogram: 16 0 0 0 0 0 0 0 0 0
FullNghs:  18749.6 ave 20484 max 17351 min
Histogram: 1 1 3 4 1 2 1 2 0 1

Total # of neighbors = 299994
Ave neighs/atom = 299.994
Neighbor list builds = 1000
Dangerous builds not checked
Setting up Verlet run ...
  Unit style    : real
  Current step  : 17000
  Time step     : 1
Per MPI rank memory allocation (min/avg/max) = 4.577 | 4.579 | 4.58 Mbytes
Step Temp E_pair E_mol TotEng Press Volume Lx Ly Lz S/CPU 
   17000    301.10735   -10550.174            0   -9653.5277    -25318.74     787.9632     9.236384     9.236384     9.236384            0 
   17100    282.64367   -10494.515            0   -9652.8501   -12526.847    788.11586    9.2369804    9.2369804    9.2369804    95.529011 
   17200    290.34705   -10514.343            0   -9649.7391   -7672.7604    787.44725    9.2343676    9.2343676    9.2343676    73.017543 
   17300    291.30613   -10510.601            0    -9643.141   -11163.202    786.07906    9.2290162    9.2290162    9.2290162    72.544565 
   17400     298.6191   -10521.164            0   -9631.9273     8059.925    784.06418    9.2211242    9.2211242    9.2211242    83.118155 
   17500    285.74505   -10465.002            0   -9614.1018    5769.0122    782.31118    9.2142469    9.2142469    9.2142469    83.986959 
   17600    299.23642   -10486.085            0   -9595.0096   -3409.9774    781.18184    9.2098109    9.2098109    9.2098109    55.871271 
   17700    303.68085   -10484.187            0   -9579.8769    12368.087    780.70981    9.2079555    9.2079555    9.2079555     74.11941 
   17800    299.87191   -10463.213            0   -9570.2459    5847.2304    780.80356    9.2083241    9.2083241    9.2083241    76.207835 
   17900    303.88719   -10468.329            0   -9563.4049     3791.366    781.45084    9.2108679    9.2108679    9.2108679    54.232258 
   18000    302.58376   -10463.226            0   -9562.1834    1630.3721    782.40647     9.214621     9.214621     9.214621    74.108993 
Loop time of 13.8331 on 16 procs for 1000 steps with 1000 atoms

Performance: 6.246 ns/day, 3.843 hours/ns, 72.290 timesteps/s
94.8% CPU use with 16 MPI tasks x no OpenMP threads

MPI task timing breakdown:
Section |  min time  |  avg time  |  max time  |%varavg| %total
---------------------------------------------------------------
Pair    | 1.6336     | 1.741      | 1.9258     |   6.3 | 12.59
Neigh   | 0.65631    | 0.69104    | 0.74629    |   3.1 |  5.00
Comm    | 0.62217    | 0.86285    | 1.0026     |  11.6 |  6.24
Output  | 7.1979     | 7.4048     | 10.455     |  28.9 | 53.53
Modify  | 0.075212   | 3.1248     | 3.3318     |  44.5 | 22.59
Other   |            | 0.008678   |            |       |  0.06

Nlocal:    62.5 ave 68 max 59 min
Histogram: 2 1 1 3 6 1 1 0 0 1
Nghost:    1855.94 ave 1879 max 1827 min
Histogram: 1 2 3 0 2 0 0 2 2 4
Neighs:    0 ave 0 max 0 min
Histogram: 16 0 0 0 0 0 0 0 0 0
FullNghs:  18870.1 ave 20662 max 17655 min
Histogram: 2 2 0 2 7 1 1 0 0 1

Total # of neighbors = 301922
Ave neighs/atom = 301.922
Neighbor list builds = 1000
Dangerous builds not checked
Setting up Verlet run ...
  Unit style    : real
  Current step  : 18000
  Time step     : 1
Per MPI rank memory allocation (min/avg/max) = 4.577 | 4.579 | 4.58 Mbytes
Step Temp E_pair E_mol TotEng Press Volume Lx Ly Lz S/CPU 
   18000    302.58376   -10463.226            0   -9562.1834    1630.3721    782.40647     9.214621     9.214621     9.214621            0 
   18100    304.34963   -10468.151            0   -9561.8497   -1122.3312    783.86803    9.2203552    9.2203552    9.2203552     73.46547 
   18200    310.52576   -10487.908            0   -9563.2157    3108.4819    785.59139    9.2271073    9.2271073    9.2271073    60.783991 
   18300    299.25084    -10456.38            0    -9565.262   -16659.133    787.26715    9.2336635    9.2336635    9.2336635    92.119065 
   18400    302.58045    -10470.01            0    -9568.977    9663.8051    788.21935    9.2373847    9.2373847    9.2373847    58.074094 
   18500    308.96978   -10495.032            0   -9574.9726   -11890.653    788.93298    9.2401716    9.2401716    9.2401716    69.850333 
   18600    306.52383   -10492.856            0   -9580.0808   -14171.938    789.19887    9.2412095    9.2412095    9.2412095    86.417415 
   18700    293.69983   -10462.667            0   -9588.0791   -9241.2106    788.41758     9.238159     9.238159     9.238159    74.731835 
   18800    308.68346   -10516.988            0    -9597.781   -3295.0077    787.01526    9.2326786    9.2326786    9.2326786    69.963133 
   18900    297.80982   -10493.205            0   -9606.3786    -1393.778    785.18082    9.2254996    9.2254996    9.2254996    66.391116 
   19000    304.71814   -10524.032            0   -9616.6331    5927.2106    782.89078    9.2165219    9.2165219    9.2165219    74.252704 
Loop time of 14.0231 on 16 procs for 1000 steps with 1000 atoms

Performance: 6.161 ns/day, 3.895 hours/ns, 71.311 timesteps/s
94.8% CPU use with 16 MPI tasks x no OpenMP threads

MPI task timing breakdown:
Section |  min time  |  avg time  |  max time  |%varavg| %total
---------------------------------------------------------------
Pair    | 1.522      | 1.7074     | 1.8214     |   5.6 | 12.18
Neigh   | 0.6358     | 0.67999    | 0.7153     |   2.6 |  4.85
Comm    | 0.72036    | 0.86943    | 1.099      |  10.0 |  6.20
Output  | 7.2844     | 7.5019     | 10.713     |  30.3 | 53.50
Modify  | 0.044168   | 3.2557     | 3.4738     |  46.0 | 23.22
Other   |            | 0.008635   |            |       |  0.06

Nlocal:    62.5 ave 66 max 59 min
Histogram: 1 1 3 0 3 5 0 0 1 2
Nghost:    1874.25 ave 1890 max 1859 min
Histogram: 2 1 0 1 5 2 2 0 2 1
Neighs:    0 ave 0 max 0 min
Histogram: 16 0 0 0 0 0 0 0 0 0
FullNghs:  18852.9 ave 19957 max 17676 min
Histogram: 1 0 2 3 2 3 2 0 0 3

Total # of neighbors = 301646
Ave neighs/atom = 301.646
Neighbor list builds = 1000
Dangerous builds not checked
Setting up Verlet run ...
  Unit style    : real
  Current step  : 19000
  Time step     : 1
Per MPI rank memory allocation (min/avg/max) = 4.577 | 4.579 | 4.58 Mbytes
Step Temp E_pair E_mol TotEng Press Volume Lx Ly Lz S/CPU 
   19000    304.71814   -10524.032            0   -9616.6331    5927.2106    782.89078    9.2165219    9.2165219    9.2165219            0 
   19100    299.22245   -10516.557            0   -9625.5236   -5998.3591    780.84076    9.2084703    9.2084703    9.2084703    71.517314 
   19200    302.34316    -10533.97            0   -9633.6436     20796.46    779.25966    9.2022508    9.2022508    9.2022508    77.057353 
   19300    302.60958   -10541.849            0   -9640.7295    10873.247    778.32146    9.1985562    9.1985562    9.1985562    47.851885 
   19400    300.44683   -10541.088            0   -9646.4085     11296.95      777.526    9.1954215    9.1954215    9.1954215    64.130472 
   19500    300.71513   -10546.837            0   -9651.3582    19911.841    777.36563    9.1947892    9.1947892    9.1947892    69.786232 
   19600    309.20906   -10576.573            0   -9655.8008    7163.3023      778.101    9.1976877    9.1976877    9.1976877    79.846273 
   19700     303.8077   -10564.541            0   -9659.8532    207.59535    779.27929    9.2023281    9.2023281    9.2023281    80.473262 
   19800      298.541   -10551.507            0   -9662.5024   -7740.9046    780.47758    9.2070424    9.2070424    9.2070424    69.208106 
   19900    303.21709   -10567.934            0    -9665.005   -3102.1106    781.37926    9.2105867    9.2105867    9.2105867    75.805786 
   20000     295.0615   -10544.773            0     -9666.13   -20000.981    782.00682    9.2130518    9.2130518    9.2130518     85.60068 
Loop time of 14.2054 on 16 procs for 1000 steps with 1000 atoms

Performance: 6.082 ns/day, 3.946 hours/ns, 70.396 timesteps/s
94.8% CPU use with 16 MPI tasks x no OpenMP threads

MPI task timing breakdown:
Section |  min time  |  avg time  |  max time  |%varavg| %total
---------------------------------------------------------------
Pair    | 1.5809     | 1.7406     | 2.0233     |   7.5 | 12.25
Neigh   | 0.6412     | 0.68337    | 0.76053    |   3.3 |  4.81
Comm    | 0.5411     | 0.90228    | 1.1047     |  13.1 |  6.35
Output  | 7.4325     | 7.6468     | 10.806     |  29.5 | 53.83
Modify  | 0.064967   | 3.2237     | 3.4382     |  45.4 | 22.69
Other   |            | 0.008657   |            |       |  0.06

Nlocal:    62.5 ave 69 max 57 min
Histogram: 2 1 2 2 2 3 0 2 0 2
Nghost:    1860.19 ave 1884 max 1842 min
Histogram: 2 1 3 0 4 2 1 2 0 1
Neighs:    0 ave 0 max 0 min
Histogram: 16 0 0 0 0 0 0 0 0 0
FullNghs:  18872.6 ave 20800 max 17264 min
Histogram: 2 1 2 4 1 1 1 2 0 2

Total # of neighbors = 301962
Ave neighs/atom = 301.962
Neighbor list builds = 1000
Dangerous builds not checked
Setting up Verlet run ...
  Unit style    : real
  Current step  : 20000
  Time step     : 1
Per MPI rank memory allocation (min/avg/max) = 4.577 | 4.579 | 4.58 Mbytes
Step Temp E_pair E_mol TotEng Press Volume Lx Ly Lz S/CPU 
   20000     295.0615   -10544.773            0     -9666.13   -20000.981    782.00682    9.2130518    9.2130518    9.2130518            0 
   20100     293.7157   -10540.062            0   -9665.4266   -14217.494    781.68496    9.2117877    9.2117877    9.2117877    77.373715 
   20200     289.0983   -10523.633            0   -9662.7475    3065.3713    780.16811    9.2058254    9.2058254    9.2058254    59.132173 
   20300    298.16634   -10548.654            0   -9660.7659    8535.2158    778.35583    9.1986916    9.1986916    9.1986916    91.266364 
   20400    297.66138   -10544.279            0   -9657.8945     5082.352      776.955      9.19317      9.19317      9.19317    60.069872 
   20500    291.99119   -10523.233            0   -9653.7328    8314.6888    776.23259    9.1903198    9.1903198    9.1903198    69.736615 
   20600    298.26059   -10539.201            0   -9651.0322    10066.976     775.9828    9.1893339    9.1893339    9.1893339    72.551426 
   20700    299.26762   -10537.665            0   -9646.4972    4694.9157    776.21268    9.1902412    9.1902412    9.1902412     55.71792 
   20800    290.31294   -10505.761            0   -9641.2585    11791.957    776.81878    9.1926327    9.1926327    9.1926327    68.803616 
   20900    286.93987   -10487.628            0   -9633.1704   -5495.3645    777.84901    9.1966947    9.1966947    9.1966947     86.07088 
   21000     300.3759   -10519.191            0   -9624.7231    305.35605    778.76743    9.2003128    9.2003128    9.2003128     73.40724 
Loop time of 14.3286 on 16 procs for 1000 steps with 1000 atoms

Performance: 6.030 ns/day, 3.980 hours/ns, 69.791 timesteps/s
94.8% CPU use with 16 MPI tasks x no OpenMP threads

MPI task timing breakdown:
Section |  min time  |  avg time  |  max time  |%varavg| %total
---------------------------------------------------------------
Pair    | 1.676      | 1.7697     | 1.9363     |   6.0 | 12.35
Neigh   | 0.66626    | 0.69373    | 0.74054    |   2.6 |  4.84
Comm    | 0.65244    | 0.85909    | 0.96284    |  10.7 |  6.00
Output  | 7.2983     | 7.5313     | 10.953     |  32.2 | 52.56
Modify  | 0.042935   | 3.4647     | 3.698      |  47.5 | 24.18
Other   |            | 0.01001    |            |       |  0.07

Nlocal:    62.5 ave 67 max 57 min
Histogram: 1 0 0 3 2 1 4 2 0 3
Nghost:    1867.75 ave 1885 max 1850 min
Histogram: 1 2 2 1 1 2 3 1 1 2
Neighs:    0 ave 0 max 0 min
Histogram: 16 0 0 0 0 0 0 0 0 0
FullNghs:  18956.1 ave 20452 max 17150 min
Histogram: 1 0 2 2 2 2 4 0 0 3

Total # of neighbors = 303298
Ave neighs/atom = 303.298
Neighbor list builds = 1000
Dangerous builds not checked
Setting up Verlet run ...
  Unit style    : real
  Current step  : 21000
  Time step     : 1
Per MPI rank memory allocation (min/avg/max) = 4.577 | 4.579 | 4.58 Mbytes
Step Temp E_pair E_mol TotEng Press Volume Lx Ly Lz S/CPU 
   21000     300.3759   -10519.191            0   -9624.7231    305.35605    778.76743    9.2003128    9.2003128    9.2003128            0 
   21100    289.69357   -10471.804            0   -9609.1463    9457.0555    779.69628    9.2039691    9.2039691    9.2039691    80.440196 
   21200     308.2641   -10508.295            0   -9590.3374    8014.2072    781.02335     9.209188     9.209188     9.209188    57.065843 
   21300    303.71711    -10475.49            0   -9571.0726   -10044.558    782.39489    9.2145755    9.2145755    9.2145755    59.514281 
   21400    306.84406   -10471.857            0   -9558.1276   -9077.6097    783.40948    9.2185569    9.2185569    9.2185569    93.016189 
   21500    314.96922   -10490.525            0   -9552.6003   -2749.6912    784.04131    9.2210345    9.2210345    9.2210345     77.74194 
   21600    305.86556   -10460.407            0   -9549.5911   -3753.2698    784.82626    9.2241107    9.2241107    9.2241107    59.011474 
   21700    301.10785   -10447.375            0   -9550.7276    18124.347    785.49831    9.2267429    9.2267429    9.2267429    74.068761 
   21800    305.37861    -10462.94            0   -9553.5745    -4721.981     786.3778    9.2301852    9.2301852    9.2301852     69.54973 
   21900    312.70843   -10488.666            0   -9557.4733   -2486.9185    787.07588    9.2329156    9.2329156    9.2329156    66.950145 
   22000    296.48061   -10442.642            0    -9559.773   -8820.3342    787.51652    9.2346383    9.2346383    9.2346383    75.552453 
Loop time of 14.3369 on 16 procs for 1000 steps with 1000 atoms

Performance: 6.026 ns/day, 3.982 hours/ns, 69.750 timesteps/s
94.8% CPU use with 16 MPI tasks x no OpenMP threads

MPI task timing breakdown:
Section |  min time  |  avg time  |  max time  |%varavg| %total
---------------------------------------------------------------
Pair    | 1.5366     | 1.7065     | 1.9339     |   7.7 | 11.90
Neigh   | 0.61619    | 0.67766    | 0.75604    |   4.1 |  4.73
Comm    | 0.59794    | 0.90247    | 1.129      |  14.0 |  6.29
Output  | 7.5013     | 7.7236     | 11.005     |  30.5 | 53.87
Modify  | 0.03473    | 3.3182     | 3.5411     |  46.5 | 23.14
Other   |            | 0.008601   |            |       |  0.06

Nlocal:    62.5 ave 67 max 58 min
Histogram: 1 3 0 2 2 3 0 1 3 1
Nghost:    1851.19 ave 1861 max 1836 min
Histogram: 1 2 1 0 0 1 5 0 3 3
Neighs:    0 ave 0 max 0 min
Histogram: 16 0 0 0 0 0 0 0 0 0
FullNghs:  18718.9 ave 20151 max 17260 min
Histogram: 1 3 1 1 2 3 0 1 2 2

Total # of neighbors = 299502
Ave neighs/atom = 299.502
Neighbor list builds = 1000
Dangerous builds not checked
Setting up Verlet run ...
  Unit style    : real
  Current step  : 22000
  Time step     : 1
Per MPI rank memory allocation (min/avg/max) = 4.577 | 4.579 | 4.58 Mbytes
Step Temp E_pair E_mol TotEng Press Volume Lx Ly Lz S/CPU 
   22000    296.48061   -10442.642            0    -9559.773   -8820.3342    787.51652    9.2346383    9.2346383    9.2346383            0 
   22100    298.26059   -10451.531            0   -9563.3618     2910.976    787.69258    9.2353264    9.2353264    9.2353264    72.043384 
   22200    290.62984   -10432.554            0   -9567.1083    11826.783    787.64799    9.2351522    9.2351522    9.2351522    58.962003 
   22300    301.64475   -10469.926            0   -9571.6796    -514.3673    787.72413    9.2354498    9.2354498    9.2354498    88.515809 
   22400    300.39848   -10471.086            0   -9576.5502    13670.917    787.76613    9.2356139    9.2356139    9.2356139    70.037329 
   22500    298.17347   -10468.605            0   -9580.6949   -6078.8943    788.07066    9.2368038    9.2368038    9.2368038    73.241334 
   22600    293.36794   -10459.012            0   -9585.4126    4463.4379    788.21822    9.2373803    9.2373803    9.2373803     82.88331 
   22700    304.82668   -10497.204            0   -9589.4823   -3716.7961    787.98578    9.2364722    9.2364722    9.2364722    68.926462 
   22800    288.86912   -10454.651            0   -9594.4476   -3470.8404    787.19904    9.2333972    9.2333972    9.2333972    72.206989 
   22900    306.42222   -10513.569            0   -9601.0962   -826.59101    785.77767    9.2278366    9.2278366    9.2278366     79.22257 
   23000    299.62842   -10501.275            0   -9609.0329    399.62003     784.2246     9.221753     9.221753     9.221753     61.64603 
Loop time of 13.9337 on 16 procs for 1000 steps with 1000 atoms

Performance: 6.201 ns/day, 3.870 hours/ns, 71.769 timesteps/s
94.8% CPU use with 16 MPI tasks x no OpenMP threads

MPI task timing breakdown:
Section |  min time  |  avg time  |  max time  |%varavg| %total
---------------------------------------------------------------
Pair    | 1.5416     | 1.7236     | 1.9162     |  10.1 | 12.37
Neigh   | 0.62506    | 0.68823    | 0.76092    |   5.6 |  4.94
Comm    | 0.63182    | 0.87936    | 1.1159     |  19.0 |  6.31
Output  | 7.0929     | 7.3136     | 10.568     |  31.1 | 52.49
Modify  | 0.064874   | 3.3202     | 3.5415     |  46.1 | 23.83
Other   |            | 0.008681   |            |       |  0.06

Nlocal:    62.5 ave 68 max 58 min
Histogram: 1 0 3 2 3 1 2 3 0 1
Nghost:    1867.56 ave 1879 max 1855 min
Histogram: 2 1 2 2 1 1 2 0 2 3
Neighs:    0 ave 0 max 0 min
Histogram: 16 0 0 0 0 0 0 0 0 0
FullNghs:  18825.9 ave 20442 max 17401 min
Histogram: 1 0 3 4 2 0 3 2 0 1

Total # of neighbors = 301214
Ave neighs/atom = 301.214
Neighbor list builds = 1000
Dangerous builds not checked
Setting up Verlet run ...
  Unit style    : real
  Current step  : 23000
  Time step     : 1
Per MPI rank memory allocation (min/avg/max) = 4.577 | 4.579 | 4.58 Mbytes
Step Temp E_pair E_mol TotEng Press Volume Lx Ly Lz S/CPU 
   23000    299.62842   -10501.275            0   -9609.0329    399.62003     784.2246     9.221753     9.221753     9.221753            0 
   23100    296.31903   -10498.978            0   -9616.5906   -1315.0748    782.64189    9.2155451    9.2155451    9.2155451    55.702255 
   23200     297.5324   -10511.879            0   -9625.8787    7291.9563    781.12516    9.2095881    9.2095881    9.2095881    66.250895 
   23300    299.17814   -10527.454            0   -9636.5526   -5201.3562    779.96548    9.2050283    9.2050283    9.2050283    64.989328 
   23400    313.85735   -10583.151            0    -9648.537     4919.364    779.21481    9.2020742    9.2020742    9.2020742    86.817551 
   23500    299.55689   -10548.584            0   -9656.5551    12735.765    779.13738    9.2017694    9.2017694    9.2017694    74.637832 
   23600    292.97035   -10538.282            0   -9665.8661    21226.531    779.95231    9.2049765    9.2049765    9.2049765    63.208234 
   23700     300.9755   -10570.221            0   -9673.9672   -8597.7228    781.45017    9.2108653    9.2108653    9.2108653    79.673754 
   23800    284.73956   -10524.953            0   -9677.0473   -4118.9021    782.90213    9.2165664    9.2165664    9.2165664    85.519051 
   23900    295.26293   -10557.759            0   -9678.5167    9018.6639    784.58935    9.2231825    9.2231825    9.2231825    62.743101 
   24000    290.90751   -10544.896            0   -9678.6232   -1355.4523    786.68789    9.2313983    9.2313983    9.2313983    82.037904 
Loop time of 14.1543 on 16 procs for 1000 steps with 1000 atoms

Performance: 6.104 ns/day, 3.932 hours/ns, 70.650 timesteps/s
94.8% CPU use with 16 MPI tasks x no OpenMP threads

MPI task timing breakdown:
Section |  min time  |  avg time  |  max time  |%varavg| %total
---------------------------------------------------------------
Pair    | 1.621      | 1.757      | 1.9637     |   8.0 | 12.41
Neigh   | 0.64683    | 0.69227    | 0.75353    |   4.2 |  4.89
Comm    | 0.58276    | 0.85198    | 1.0149     |  15.2 |  6.02
Output  | 6.7261     | 6.9803     | 10.739     |  36.7 | 49.32
Modify  | 0.10464    | 3.8641     | 4.1189     |  49.4 | 27.30
Other   |            | 0.008789   |            |       |  0.06

Nlocal:    62.5 ave 66 max 58 min
Histogram: 1 0 3 3 0 0 4 0 3 2
Nghost:    1846.88 ave 1858 max 1835 min
Histogram: 1 0 2 2 3 3 2 1 0 2
Neighs:    0 ave 0 max 0 min
Histogram: 16 0 0 0 0 0 0 0 0 0
FullNghs:  18768.8 ave 19893 max 17444 min
Histogram: 1 0 3 3 0 3 1 0 3 2

Total # of neighbors = 300300
Ave neighs/atom = 300.3
Neighbor list builds = 1000
Dangerous builds not checked
Setting up Verlet run ...
  Unit style    : real
  Current step  : 24000
  Time step     : 1
Per MPI rank memory allocation (min/avg/max) = 4.577 | 4.579 | 4.58 Mbytes
Step Temp E_pair E_mol TotEng Press Volume Lx Ly Lz S/CPU 
   24000    290.90751   -10544.896            0   -9678.6232   -1355.4523    786.68789    9.2313983    9.2313983    9.2313983            0 
   24100    289.12173   -10537.547            0   -9676.5921   -16223.844     788.3596    9.2379325    9.2379325    9.2379325    68.593089 
   24200    292.03343   -10543.573            0   -9673.9471    -1580.652    789.07517    9.2407267    9.2407267    9.2407267    62.882981 
   24300    299.01906   -10561.012            0   -9670.5841    -20873.91    788.90746     9.240072     9.240072     9.240072    76.218487 
   24400    291.60264   -10535.399            0   -9667.0558   -12218.182    787.61411    9.2350198    9.2350198    9.2350198    69.030014 
   24500    301.22585   -10559.052            0   -9662.0524    49.345456     785.4426    9.2265247    9.2265247    9.2265247    57.003214 
   24600    292.23356   -10527.789            0   -9657.5676     -3480.48    782.80839    9.2161986    9.2161986    9.2161986    78.532602 
   24700    288.01135   -10510.615            0   -9652.9664   -8968.7625    779.75155    9.2041866    9.2041866    9.2041866    56.552555 
   24800    291.51761   -10516.282            0   -9648.1921    11058.874    776.15511     9.190014     9.190014     9.190014    65.541533 
   24900    302.62011   -10544.337            0   -9643.1857    23899.903    772.75243    9.1765646    9.1765646    9.1765646    73.818394 
   25000    294.49866   -10514.441            0   -9637.4738    20962.666    770.29082    9.1668102    9.1668102    9.1668102    66.464017 
Loop time of 14.9897 on 16 procs for 1000 steps with 1000 atoms

Performance: 5.764 ns/day, 4.164 hours/ns, 66.712 timesteps/s
94.8% CPU use with 16 MPI tasks x no OpenMP threads

MPI task timing breakdown:
Section |  min time  |  avg time  |  max time  |%varavg| %total
---------------------------------------------------------------
Pair    | 1.5636     | 1.7188     | 1.8926     |   6.7 | 11.47
Neigh   | 0.63016    | 0.68169    | 0.74194    |   3.3 |  4.55
Comm    | 0.62375    | 0.85802    | 1.0644     |  12.3 |  5.72
Output  | 7.7383     | 7.9875     | 11.671     |  33.7 | 53.29
Modify  | 0.05129    | 3.7351     | 3.9847     |  49.2 | 24.92
Other   |            | 0.00867    |            |       |  0.06

Nlocal:    62.5 ave 67 max 58 min
Histogram: 1 2 2 1 1 2 4 0 2 1
Nghost:    1883.06 ave 1896 max 1868 min
Histogram: 1 1 2 1 1 3 1 3 2 1
Neighs:    0 ave 0 max 0 min
Histogram: 16 0 0 0 0 0 0 0 0 0
FullNghs:  19155.9 ave 20543 max 17773 min
Histogram: 2 1 3 0 1 1 5 0 2 1

Total # of neighbors = 306494
Ave neighs/atom = 306.494
Neighbor list builds = 1000
Dangerous builds not checked
Setting up Verlet run ...
  Unit style    : real
  Current step  : 25000
  Time step     : 1
Per MPI rank memory allocation (min/avg/max) = 4.577 | 4.579 | 4.58 Mbytes
Step Temp E_pair E_mol TotEng Press Volume Lx Ly Lz S/CPU 
   25000    294.49866   -10514.441            0   -9637.4738    20962.666    770.29082    9.1668102    9.1668102    9.1668102            0 
   25100    294.20105   -10510.179            0   -9634.0983    18077.959    769.20824    9.1625138    9.1625138    9.1625138     84.78569 
   25200    304.94971    -10540.75            0   -9632.6622    15493.796    769.88705    9.1652083    9.1652083    9.1652083    80.494902 
   25300    307.66714   -10547.384            0   -9631.2037    12058.807    772.19477    9.1743566    9.1743566    9.1743566    59.434007 
   25400    301.30792   -10526.359            0   -9629.1155    4287.7312    775.58867    9.1877778    9.1877778    9.1877778    84.131295 
   25500    296.66183   -10511.572            0   -9628.1637   -2898.6649    779.32094     9.202492     9.202492     9.202492    84.546167 
   25600    293.09788   -10498.767            0    -9625.972    9111.7573    782.77934    9.2160846    9.2160846    9.2160846    64.442291 
   25700    292.38137   -10496.126            0   -9625.4646   -15303.567    786.22326    9.2295805    9.2295805    9.2295805    68.240873 
   25800    290.25882   -10487.796            0   -9623.4552   -11006.073    789.07285    9.2407176    9.2407176    9.2407176    72.148253 
   25900    296.03598   -10501.819            0   -9620.2748   -21105.904    791.00496    9.2482537    9.2482537    9.2482537    60.153188 
   26000    298.67332   -10502.415            0   -9613.0169   -14204.896    791.93314    9.2518697    9.2518697    9.2518697    80.620322 
Loop time of 13.7817 on 16 procs for 1000 steps with 1000 atoms

Performance: 6.269 ns/day, 3.828 hours/ns, 72.560 timesteps/s
94.9% CPU use with 16 MPI tasks x no OpenMP threads

MPI task timing breakdown:
Section |  min time  |  avg time  |  max time  |%varavg| %total
---------------------------------------------------------------
Pair    | 1.5108     | 1.7305     | 1.9134     |   7.8 | 12.56
Neigh   | 0.61551    | 0.68143    | 0.75002    |   4.3 |  4.94
Comm    | 0.66337    | 0.91753    | 1.2035     |  14.4 |  6.66
Output  | 7.0905     | 7.2978     | 10.353     |  29.2 | 52.95
Modify  | 0.092269   | 3.1457     | 3.3532     |  44.5 | 22.83
Other   |            | 0.008679   |            |       |  0.06

Nlocal:    62.5 ave 69 max 57 min
Histogram: 2 0 1 3 0 7 2 0 0 1
Nghost:    1852.25 ave 1871 max 1832 min
Histogram: 2 0 3 1 1 2 3 0 3 1
Neighs:    0 ave 0 max 0 min
Histogram: 16 0 0 0 0 0 0 0 0 0
FullNghs:  18617.1 ave 20827 max 16902 min
Histogram: 2 0 1 3 5 2 1 1 0 1

Total # of neighbors = 297874
Ave neighs/atom = 297.874
Neighbor list builds = 1000
Dangerous builds not checked
Setting up Verlet run ...
  Unit style    : real
  Current step  : 26000
  Time step     : 1
Per MPI rank memory allocation (min/avg/max) = 4.577 | 4.579 | 4.58 Mbytes
Step Temp E_pair E_mol TotEng Press Volume Lx Ly Lz S/CPU 
   26000    298.67332   -10502.415            0   -9613.0169   -14204.896    791.93314    9.2518697    9.2518697    9.2518697            0 
   26100    295.06918   -10481.022            0   -9602.3562   -12304.835    791.86053    9.2515869    9.2515869    9.2515869    62.471598 
   26200    302.15734   -10487.284            0   -9587.5106   -3672.2742    791.13447    9.2487584    9.2487584    9.2487584    62.765915 
   26300    305.24465   -10480.215            0   -9571.2484   -7535.2792    789.91519    9.2440046    9.2440046    9.2440046    73.444103 
   26400    296.34164   -10438.693            0   -9556.2379   -8995.6422    788.40898    9.2381254    9.2381254    9.2381254    81.829406 
   26500    311.03759   -10474.166            0   -9547.9493   -11994.659    786.69432    9.2314234    9.2314234    9.2314234    65.068636 
   26600     304.4815   -10447.371            0   -9540.6776   -3831.7498    784.60072    9.2232271    9.2232271    9.2232271     87.84418 
   26700    304.46972   -10443.851            0   -9537.1924   -3552.9049    782.39195     9.214564     9.214564     9.214564    80.029824 
   26800    301.02476   -10432.736            0   -9536.3361    5235.7473     780.1713    9.2058379    9.2058379    9.2058379    66.068483 
   26900    304.26287   -10443.313            0   -9537.2705    9108.9753    778.19965    9.1980763    9.1980763    9.1980763    65.423474 
   27000    307.10603   -10453.795            0   -9539.2859   -2354.4383    776.66859    9.1920402    9.1920402    9.1920402    64.010909 
Loop time of 14.3067 on 16 procs for 1000 steps with 1000 atoms

Performance: 6.039 ns/day, 3.974 hours/ns, 69.897 timesteps/s
94.8% CPU use with 16 MPI tasks x no OpenMP threads

MPI task timing breakdown:
Section |  min time  |  avg time  |  max time  |%varavg| %total
---------------------------------------------------------------
Pair    | 1.6636     | 1.733      | 1.8001     |   3.2 | 12.11
Neigh   | 0.6717     | 0.68746    | 0.71528    |   1.4 |  4.81
Comm    | 0.77107    | 0.85293    | 0.93365    |   5.6 |  5.96
Output  | 7.5288     | 7.7482     | 10.966     |  29.8 | 54.16
Modify  | 0.054556   | 3.2764     | 3.4965     |  46.0 | 22.90
Other   |            | 0.0087     |            |       |  0.06

Nlocal:    62.5 ave 68 max 56 min
Histogram: 1 1 2 3 0 2 1 2 2 2
Nghost:    1864.19 ave 1893 max 1842 min
Histogram: 1 2 3 2 3 2 0 0 2 1
Neighs:    0 ave 0 max 0 min
Histogram: 16 0 0 0 0 0 0 0 0 0
FullNghs:  19005.1 ave 20937 max 16991 min
Histogram: 1 1 4 1 1 1 1 2 2 2

Total # of neighbors = 304082
Ave neighs/atom = 304.082
Neighbor list builds = 1000
Dangerous builds not checked
Setting up Verlet run ...
  Unit style    : real
  Current step  : 27000
  Time step     : 1
Per MPI rank memory allocation (min/avg/max) = 4.577 | 4.579 | 4.58 Mbytes
Step Temp E_pair E_mol TotEng Press Volume Lx Ly Lz S/CPU 
   27000    307.10603   -10453.795            0   -9539.2859   -2354.4383    776.66859    9.1920402    9.1920402    9.1920402            0 
   27100    309.18477    -10463.81            0   -9543.1102    13932.354    775.46835    9.1873027    9.1873027    9.1873027    71.264774 
   27200    311.83591   -10478.496            0   -9549.9016    6904.0208     775.1935    9.1862171    9.1862171    9.1862171    64.640024 
   27300    312.09368   -10486.064            0   -9556.7023    6432.1652    775.93912    9.1891614    9.1891614    9.1891614    76.108825 
   27400    297.82456   -10453.151            0   -9566.2805    26120.763    777.60693    9.1957405    9.1957405    9.1957405    74.431214 
   27500    292.34273   -10445.366            0   -9574.8193   -3069.5833    780.57297    9.2074175    9.2074175    9.2074175    69.190668 
   27600    291.58396   -10451.758            0   -9583.4712    5026.9867    783.45171    9.2187226    9.2187226    9.2187226     102.2101 
   27700    301.03752   -10488.002            0   -9591.5634   -172.95703    786.20416    9.2295058    9.2295058    9.2295058    54.417703 
   27800    298.98164   -10487.913            0   -9597.5966   -13729.449    788.43369    9.2382219    9.2382219    9.2382219    75.108716 
   27900    286.85868   -10454.652            0   -9600.4356   -22756.948    789.82965     9.243671     9.243671     9.243671    69.245375 
   28000    299.98559   -10496.901            0   -9603.5953   -3935.9838    790.18327    9.2450503    9.2450503    9.2450503    77.008264 
Loop time of 13.9431 on 16 procs for 1000 steps with 1000 atoms

Performance: 6.197 ns/day, 3.873 hours/ns, 71.720 timesteps/s
[...]
  629700    293.49114   -11529.192            0   -10655.226   -7740.9754    727.42134    8.9934987    8.9934987    8.9934987    54.357459 
  629800    294.54741   -11528.095            0   -10650.983    62.053129    727.57838    8.9941459    8.9941459    8.9941459    56.379459 
  629900    285.91983   -11498.076            0   -10646.655   -11956.455    727.37358    8.9933019    8.9933019    8.9933019    70.452416 
  630000    295.84898   -11525.414            0   -10644.426   -4487.1532    726.99065    8.9917235    8.9917235    8.9917235    50.557041 
  630100    295.05419    -11519.39            0   -10640.769   -5221.4554    726.38558    8.9892282    8.9892282    8.9892282    80.503108 
  630200     309.8335   -11561.019            0   -10638.388   -9329.7367     725.4716    8.9854564    8.9854564    8.9854564    79.087195 
  630300    297.46195   -11521.571            0   -10635.781    7312.4464    724.56779    8.9817234    8.9817234    8.9817234    63.876944 
  630400    293.52727   -11506.634            0    -10632.56     9270.113    723.86458    8.9788168    8.9788168    8.9788168    89.892889 
  630500    304.96539   -11539.433            0   -10631.299   -562.23649    723.48188    8.9772341    8.9772341    8.9772341     81.48337 
  630600     309.7496   -11552.959            0   -10630.578    7683.2081    723.56707    8.9775865    8.9775865    8.9775865    64.468604 
  630700    310.98429    -11556.47            0   -10630.412   -2134.7094     724.3206    8.9807018    8.9807018    8.9807018    84.912211 
  630800    311.47536   -11555.995            0   -10628.474   -4160.5619    725.33016    8.9848724    8.9848724    8.9848724    71.261742 
  630900    309.11323   -11550.687            0     -10630.2   -4221.8721    726.36228    8.9891321    8.9891321    8.9891321    64.952452 
  631000    318.61747    -11579.96            0   -10631.172   -8104.1936    727.11176    8.9922227    8.9922227    8.9922227    93.748033 
  631100    292.34686   -11500.246            0   -10629.687   -4497.5527     727.3604    8.9932476    8.9932476    8.9932476    84.129452 
  631200    302.98356   -11537.223            0    -10634.99    1551.2544    727.24821    8.9927852    8.9927852    8.9927852    61.926099 
  631300    299.12379   -11530.317            0   -10639.577   -14151.848    726.85031    8.9911448    8.9911448    8.9911448     76.18245 
  631400    300.29515    -11540.06            0   -10645.832   -7878.2719    725.93058    8.9873509    8.9873509    8.9873509    65.687424 
  631500    297.06617   -11538.139            0   -10653.526    676.63584    724.77257    8.9825694    8.9825694    8.9825694    78.175774 
  631600    297.30907   -11547.304            0   -10661.968     9072.971     723.7742    8.9784431    8.9784431    8.9784431    80.165197 
  631700    283.74873   -11513.402            0   -10668.447    17705.315    723.20621    8.9760938    8.9760938    8.9760938    60.315058 
  631800     300.8479   -11573.237            0   -10677.364    7119.5161    723.12996    8.9757783    8.9757783    8.9757783    72.862576 
  631900    299.35061   -11575.825            0    -10684.41    15906.164    723.17415    8.9759612    8.9759612    8.9759612    65.684098 
  632000    296.52777    -11572.96            0   -10689.951    3225.8947    723.63636    8.9778731    8.9778731    8.9778731    54.202174 
  632100    293.59776   -11568.459            0   -10694.175    7267.2659    724.59439    8.9818333    8.9818333    8.9818333    72.479861 
  632200    295.73663   -11577.776            0   -10697.123   -1740.0816    725.59741    8.9859757    8.9859757    8.9859757    62.309642 
  632300    292.25192   -11568.974            0   -10698.697   -15623.025    726.32859    8.9889931    8.9889931    8.9889931    59.891992 
  632400    288.75539   -11557.397            0   -10697.533   -5677.9335    726.50658    8.9897273    8.9897273    8.9897273    72.472763 
  632500    291.32619    -11563.25            0   -10695.731   -2146.0607    726.13254    8.9881842    8.9881842    8.9881842    73.546135 
  632600    290.81043   -11558.407            0   -10692.423   -6321.3695    725.33813    8.9849053    8.9849053    8.9849053    63.480011 
  632700    292.60367   -11557.717            0   -10686.393    10883.265    724.12043    8.9798745    8.9798745    8.9798745    63.129073 
  632800    287.56212   -11534.627            0   -10678.316    12415.324    722.98503    8.9751787    8.9751787    8.9751787    82.508334 
  632900    294.31876   -11544.102            0   -10667.671    1905.0332    722.39266    8.9727267    8.9727267    8.9727267    69.406991 
  633000    303.19479   -11560.783            0   -10657.921    7058.6758    722.52214    8.9732628    8.9732628    8.9732628     52.34277 
  633100    298.88279   -11535.724            0   -10645.702    8496.9475    723.39152    8.9768604    8.9768604    8.9768604    81.959741 
  633200    295.02048   -11513.221            0     -10634.7    4131.0102    724.61938    8.9819365    8.9819365    8.9819365    76.350249 
  633300    307.47835   -11543.298            0    -10627.68   -14140.352    725.97078    8.9875167    8.9875167    8.9875167     56.17613 
  633400    297.43548   -11505.571            0   -10619.859    -2050.419    727.03594    8.9919102    8.9919102    8.9919102     74.66405 
  633500    296.31139   -11498.748            0   -10616.383   -8959.0635    727.41403    8.9934686    8.9934686    8.9934686    84.250942 
  633600    305.88286   -11525.207            0    -10614.34    -12406.09    727.06951    8.9920486    8.9920486    8.9920486    52.922039 
  633700    300.04432   -11506.436            0   -10612.955   -2812.1829    726.39147    8.9892525    8.9892525    8.9892525    88.098989 
  633800    301.72342   -11512.413            0   -10613.932   -2119.2073    725.62645    8.9860956    8.9860956    8.9860956    47.660603 
  633900    305.37211   -11524.915            0   -10615.569    6887.7983    724.89932     8.983093     8.983093     8.983093    67.087947 
  634000    299.70374   -11508.177            0   -10615.711    15214.283    724.45881    8.9812731    8.9812731    8.9812731    90.046614 
  634100    305.10148    -11527.11            0    -10618.57   -354.23873    724.49575    8.9814257    8.9814257    8.9814257    61.384579 
  634200    300.75586   -11517.146            0   -10621.547    1187.7665    724.84813    8.9828816    8.9828816    8.9828816    75.671904 
  634300     303.6319   -11529.711            0   -10625.547    3401.7744    725.70776    8.9864313    8.9864313    8.9864313    81.112247 
  634400    303.83762   -11533.436            0   -10628.659   -4821.8381    726.70791    8.9905576    8.9905576    8.9905576    57.410133 
  634500    300.68663   -11525.985            0   -10630.591   -12624.777    727.51085    8.9938676    8.9938676    8.9938676    72.087271 
  634600    301.37394   -11531.299            0   -10633.859   -8001.2511    727.91288     8.995524     8.995524     8.995524    47.187953 
  634700    309.63584   -11558.237            0   -10636.195   -18567.294    727.67258     8.994534     8.994534     8.994534    62.118508 
  634800    301.02949    -11534.16            0   -10637.746   -4341.2709    726.68011     8.990443     8.990443     8.990443    58.157304 
  634900     305.9386   -11550.834            0   -10639.801   -10922.735    725.31423    8.9848066    8.9848066    8.9848066     58.06098 
  635000    290.44211   -11504.849            0   -10639.962    5823.5194    723.74364    8.9783167    8.9783167    8.9783167    71.247712 
  635100    300.15612   -11537.137            0   -10643.324      7623.08    722.47273    8.9730582    8.9730582    8.9730582    48.535159 
  635200    306.27792   -11558.506            0   -10646.462     15244.26    721.75568    8.9700887    8.9700887    8.9700887     64.62649 
  635300    304.23818    -11556.76            0    -10650.79    15187.085    722.08203    8.9714405    8.9714405    8.9714405    71.742476 
  635400    311.47096    -11580.44            0   -10652.933    10048.719    723.71627    8.9782035    8.9782035    8.9782035     55.63028 
  635500     298.0375   -11541.644            0   -10654.139    4764.6969    726.23811    8.9886198    8.9886198    8.9886198    69.450851 
  635600    287.72552   -11511.476            0   -10654.679   -21220.592    729.06489     9.000267     9.000267     9.000267    52.019381 
  635700    294.03451    -11530.41            0   -10654.825   -30351.418    731.29393    9.0094302    9.0094302    9.0094302    51.264606 
  635800    297.66637   -11539.991            0   -10653.592   -33908.707    731.78807     9.011459     9.011459     9.011459    62.255764 
  635900    294.91219   -11530.374            0   -10652.176   -17447.541     730.1626    9.0047818    9.0047818    9.0047818    76.568265 
  636000    310.68452   -11577.389            0   -10652.223   -7504.3143     726.7932    8.9909093    8.9909093    8.9909093    72.063602 
  636100    300.36127   -11542.847            0   -10648.423    16263.906    722.52325    8.9732674    8.9732674    8.9732674    65.271433 
  636200    289.88226    -11506.77            0   -10643.551    31117.181     718.8062    8.9578531    8.9578531    8.9578531    65.384703 
  636300    296.95733   -11524.404            0   -10640.116    42256.378    716.81315    8.9495663    8.9495663    8.9495663    69.453723 
  636400    315.97606   -11579.946            0   -10639.023    29507.831    717.17154    8.9510575    8.9510575    8.9510575    68.158374 
  636500     308.2048   -11556.115            0   -10638.334    20077.106    719.80103    8.9619838    8.9619838    8.9619838    75.451977 
  636600     297.2523   -11519.492            0   -10634.326    12304.281    724.13221    8.9799232    8.9799232    8.9799232    74.945422 
  636700    299.71696   -11524.989            0   -10632.483    -15829.89    729.29687    9.0012215    9.0012215    9.0012215    54.770065 
  636800    292.99626   -11497.212            0   -10624.719   -27619.734    734.22932    9.0214686    9.0214686    9.0214686    77.996984 
  636900    291.22461   -11484.065            0   -10616.848   -43863.588     737.3082    9.0340611    9.0340611    9.0340611    62.644395 
  637000    303.14942   -11512.907            0    -10610.18   -41424.421    737.67354     9.035553     9.035553     9.035553    77.950795 
  637100    301.72979   -11501.568            0   -10603.068   -36481.403    735.23549    9.0255876    9.0255876    9.0255876    63.963251 
  637200    301.49334   -11495.069            0   -10597.273   -20155.841    730.31292    9.0053997    9.0053997    9.0053997    77.632925 
  637300    311.40761   -11516.072            0   -10588.753    11364.758    724.22787    8.9803186    8.9803186    8.9803186    64.824707 
  637400    316.51514   -11523.469            0    -10580.94    37423.268    719.00977    8.9586987    8.9586987    8.9586987    76.857175 
  637500    301.22362   -11470.569            0   -10573.576    55931.866    716.12835    8.9467154    8.9467154    8.9467154    57.183029 
  637600    318.73561   -11523.101            0   -10573.961    47160.284    716.25259    8.9472328    8.9472328    8.9472328    78.458957 
  637700     307.9606   -11494.017            0   -10576.963    39108.009    719.30693    8.9599327    8.9599327    8.9599327     95.46026 
  637800    305.43986   -11492.697            0   -10583.149    6903.3194    724.38936     8.980986     8.980986     8.980986    57.858275 
  637900    304.72089   -11498.568            0   -10591.161   -6740.4814    730.00786    9.0041456    9.0041456    9.0041456    84.328881 
  638000    296.45863   -11480.389            0   -10597.586   -35664.433    734.69842    9.0233894    9.0233894    9.0233894    58.161022 
  638100    303.24454    -11509.15            0   -10606.139    -39321.06    737.13688    9.0333613    9.0333613    9.0333613    80.034402 
  638200    294.50319    -11491.88            0     -10614.9   -48364.457    736.84229    9.0321578    9.0321578    9.0321578    84.594474 
  638300    293.71452   -11500.955            0   -10626.323   -28987.343    733.61695    9.0189598    9.0189598    9.0189598    63.353404 
  638400    298.01016   -11522.466            0   -10635.043   -5898.8394    728.65072    8.9985624    8.9985624    8.9985624    80.217769 
  638500    298.82962   -11531.193            0   -10641.329    5655.5967    723.60842    8.9777575    8.9777575    8.9777575    70.249412 
  638600    301.36028    -11545.51            0    -10648.11    24603.033    719.78649    8.9619235    8.9619235    8.9619235    62.778648 
  638700    301.87432   -11552.368            0   -10653.438    35468.322    718.03193    8.9546356    8.9546356    8.9546356    90.324577 
  638800    301.43832   -11556.249            0   -10658.618    42565.072    718.91487    8.9583045    8.9583045    8.9583045    82.317034 
  638900    302.60359   -11566.408            0   -10665.307    22855.315    721.80603    8.9702973    8.9702973    8.9702973    61.234608 
  639000    310.17707    -11594.48            0   -10670.826   -6172.8036    725.52936    8.9856948    8.9856948    8.9856948    82.825747 
  639100     296.3512   -11553.044            0    -10670.56   -12936.473    728.81717    8.9992476    8.9992476    8.9992476    68.536717 
  639200    276.54179   -11492.374            0    -10668.88   -34843.922    730.92711    9.0079235    9.0079235    9.0079235    72.014978 
  639300    292.79659   -11542.221            0   -10670.323   -27737.571    731.00456    9.0082417    9.0082417    9.0082417    68.675109 
  639400    301.13414   -11566.964            0   -10670.238   -22572.567    729.32905    9.0013539    9.0013539    9.0013539    55.919628 
  639500    299.36653   -11560.554            0   -10669.092   -7751.6749    726.47589    8.9896007    8.9896007    8.9896007     70.59992 
  639600     293.3246   -11539.736            0   -10666.266    12126.977    723.28001    8.9763991    8.9763991    8.9763991     67.10021 
  639700    298.39529   -11553.321            0    -10664.75    10091.415    720.73875    8.9658739    8.9658739    8.9658739     57.63498 
  639800    312.66707   -11595.892            0   -10664.822     25600.15    719.50254    8.9607448    8.9607448    8.9607448    67.595896 
  639900    297.87341   -11549.678            0   -10662.662    34396.992    720.01477    8.9628708    8.9628708    8.9628708     62.16837 
  640000    306.63146   -11576.833            0   -10663.737    15024.648    722.14627    8.9717065    8.9717065    8.9717065    67.327969 
  640100    298.99841   -11553.814            0   -10663.448    5610.4561    725.21629    8.9844022    8.9844022    8.9844022    74.918565 
  640200    292.95886   -11536.143            0   -10663.761   -23479.944    728.27198     8.997003     8.997003     8.997003    57.646601 
  640300    300.26941   -11556.998            0   -10662.847   -21143.545     730.1711    9.0048168    9.0048168    9.0048168    67.338883 
  640400    291.63289   -11528.863            0    -10660.43   -17681.457    730.64092    9.0067477    9.0067477    9.0067477    69.808649 
  640500     291.0258   -11524.201            0   -10657.576   -13263.328    729.94814    9.0039001    9.0039001    9.0039001    52.184782 
  640600    294.25845   -11529.811            0   -10653.559    3147.6345    728.31716    8.9971891    8.9971891    8.9971891      75.9695 
  640700    298.38042   -11537.757            0   -10649.231    -407.2785    726.32445     8.988976     8.988976     8.988976    54.323561 
  640800    293.81778    -11518.38            0    -10643.44    16964.367    724.52733    8.9815562    8.9815562    8.9815562    69.452592 
  640900    304.31191     -11543.7            0   -10637.511    9956.6428    723.61492    8.9777844    8.9777844    8.9777844    64.058244 
  641000    306.24883   -11544.349            0   -10632.392     13452.29    723.48077    8.9772296    8.9772296    8.9772296    61.038018 
  641100    304.37141   -11533.693            0   -10627.327    5200.7628    724.08211    8.9797161    8.9797161    8.9797161     63.06847 
  641200    304.72829   -11530.864            0   -10623.435    442.45146    725.10224    8.9839311    8.9839311    8.9839311    55.463403 
  641300    312.79849   -11550.123            0   -10618.663   -5092.6706    726.47184     8.989584     8.989584     8.989584    70.146571 
  641400    312.13367   -11544.152            0   -10614.672   -5315.9149    727.62673    8.9943451    8.9943451    8.9943451    71.771358 
  641500    312.00745   -11539.369            0   -10610.264   -9584.8299    728.38462    8.9974668    8.9974668    8.9974668    58.626524 
  641600    303.81691   -11508.298            0   -10603.583   -13785.962    728.54999    8.9981477    8.9981477    8.9981477    68.466694 
  641700    313.07341   -11529.451            0   -10597.172    -4424.798    727.87416    8.9953645    8.9953645    8.9953645    58.922135 
  641800    309.24528   -11509.634            0   -10588.754   -4578.8253    726.87135    8.9912316    8.9912316    8.9912316    64.185263 
  641900     323.5568    -11547.62            0   -10584.124    6418.7159    725.84998    8.9870182    8.9870182    8.9870182    63.936454 
  642000    314.45103   -11513.354            0   -10576.973     10128.14    725.28146    8.9846713    8.9846713    8.9846713    60.952379 
  642100    307.55325   -11489.645            0   -10573.804    8008.7138    725.19393    8.9843098    8.9843098    8.9843098    69.801608 
  642200    300.23458   -11466.036            0   -10571.989    2910.3063    725.38931    8.9851166    8.9851166    8.9851166    73.412543 
  642300     310.9695   -11498.822            0   -10572.808    1739.6389    725.72253    8.9864922    8.9864922    8.9864922    66.400693 
  642400    308.21708   -11493.653            0   -10575.835   -350.94778     726.0158    8.9877025    8.9877025    8.9877025    92.249659 
  642500    307.86003   -11498.413            0   -10581.659    4539.5738    726.24859     8.988663     8.988663     8.988663      68.2083 
  642600    315.84949   -11533.152            0   -10592.606   -4551.1745    726.78573    8.9908785    8.9908785    8.9908785     78.41009 
  642700    311.18906   -11528.106            0   -10601.438   -18175.233    727.37633    8.9933133    8.9933133    8.9933133    81.790772 
  642800    301.24322   -11510.499            0   -10613.448   -6504.3799    727.45789    8.9936494    8.9936494    8.9936494    61.392109 
  642900    307.33112   -11542.008            0   -10626.828   -2995.0396    726.96266     8.991608     8.991608     8.991608    80.448039 
  643000    292.55423   -11506.039            0   -10634.863   -3700.3869    726.22665    8.9885725    8.9885725    8.9885725    77.699603 
Loop time of 1429.19 on 16 procs for 100000 steps with 1000 atoms

Performance: 6.045 ns/day, 3.970 hours/ns, 69.970 timesteps/s
94.9% CPU use with 16 MPI tasks x no OpenMP threads

MPI task timing breakdown:
Section |  min time  |  avg time  |  max time  |%varavg| %total
---------------------------------------------------------------
Pair    | 152.39     | 174.02     | 191.98     | 114.7 | 12.18
Neigh   | 63.139     | 71.133     | 77.508     |  63.7 |  4.98
Comm    | 78.538     | 101.97     | 130.65     | 201.4 |  7.13
Output  | 720.25     | 742.83     | 1076       | 315.7 | 51.98
Modify  | 5.1537     | 338.33     | 360.91     | 467.7 | 23.67
Other   |            | 0.9004     |            |       |  0.06

Nlocal:    62.5 ave 70 max 55 min
Histogram: 2 2 2 2 0 0 2 1 3 2
Nghost:    1964.19 ave 1999 max 1943 min
Histogram: 3 2 3 2 2 0 1 1 1 1
Neighs:    0 ave 0 max 0 min
Histogram: 16 0 0 0 0 0 0 0 0 0
FullNghs:  20247.8 ave 22797 max 17755 min
Histogram: 2 2 1 3 0 1 1 2 2 2

Total # of neighbors = 323964
Ave neighs/atom = 323.964
Neighbor list builds = 100000
Dangerous builds not checked
Total wall time: 2:30:25
