LAMMPS (16 Mar 2018)
Reading data file ...
  orthogonal box = (-4.73157 -4.73157 -4.73157) to (4.73157 4.73157 4.73157)
  2 by 2 by 4 MPI processor grid
  reading atoms ...
  1000 atoms
Reading potential file /home/fs01/ajm529/lammps-16Mar18/potentials/sw_potentials/AG/eps2.23.sw with DATE: 2008-01-29
Neighbor list info ...
  update every 1 steps, delay 0 steps, check no
  max neighbors/atom: 2000, page size: 100000
  master list distance cutoff = 3.836
  ghost atom cutoff = 3.836
  binsize = 1.918, bins = 5 5 5
  1 neighbor lists, perpetual/occasional/extra = 1 0 0
  (1) pair sw, perpetual
      attributes: full, newton on
      pair build: full/bin/atomonly
      stencil: full/bin/3d
      bin: standard
Setting up Verlet run ...
  Unit style    : real
  Current step  : 0
  Time step     : 1
Per MPI rank memory allocation (min/avg/max) = 3.517 | 3.518 | 3.519 Mbytes
Step Temp E_pair E_mol TotEng Press Volume Lx Ly Lz S/CPU 
       0          300   -10072.865            0    -9179.516   -23607.864    847.43194     9.463133     9.463133     9.463133            0 
     100    321.54796   -10142.556            0   -9185.0413    -47846.52    845.44384    9.4557269    9.4557269    9.4557269    46.086393 
     200    322.68272   -10160.058            0   -9199.1642   -26978.956    839.74083    9.4344175    9.4344175    9.4344175    55.011436 
     300    330.86453   -10207.453            0   -9222.1953   -25059.453    831.44206    9.4032359    9.4032359    9.4032359    53.231863 
     400    332.77068   -10237.308            0   -9246.3735   -15666.037    821.35694    9.3650617    9.3650617    9.3650617    38.924141 
     500    330.45133   -10251.641            0    -9267.613   -191.86141    810.83311    9.3248923    9.3248923    9.3248923    49.869808 
     600    326.19272   -10255.047            0   -9283.7005    -2589.781    801.51496    9.2890338    9.2890338    9.2890338    46.851883 
     700    334.50589   -10297.951            0   -9301.8496   -5410.3887    794.14883      9.26049      9.26049      9.26049    47.133467 
     800    328.73238   -10297.923            0    -9319.014    36494.446    788.79246     9.239623     9.239623     9.239623    54.073111 
     900    338.08897   -10346.616            0   -9339.8449    16505.232    785.79696    9.2279121    9.2279121    9.2279121    32.452062 
    1000    328.87123   -10341.156            0   -9361.8334    21598.141    784.68505    9.2235575    9.2235575    9.2235575    38.995725 
Loop time of 22.1918 on 16 procs for 1000 steps with 1000 atoms

Performance: 3.893 ns/day, 6.164 hours/ns, 45.062 timesteps/s
94.6% CPU use with 16 MPI tasks x no OpenMP threads

MPI task timing breakdown:
Section |  min time  |  avg time  |  max time  |%varavg| %total
---------------------------------------------------------------
Pair    | 1.6645     | 1.8423     | 2.6221     |  16.4 |  8.30
Neigh   | 0.61952    | 0.67113    | 0.89703    |   8.3 |  3.02
Comm    | 0.41144    | 1.4165     | 1.6447     |  24.3 |  6.38
Output  | 11.036     | 11.489     | 18.224     |  51.3 | 51.77
Modify  | 0.028407   | 6.7658     | 7.2193     |  66.9 | 30.49
Other   |            | 0.0074     |            |       |  0.03

Nlocal:    62.5 ave 68 max 57 min
Histogram: 2 1 3 0 2 1 3 1 0 3
Nghost:    1844.94 ave 1869 max 1821 min
Histogram: 1 1 3 1 1 2 3 2 0 2
Neighs:    0 ave 0 max 0 min
Histogram: 16 0 0 0 0 0 0 0 0 0
FullNghs:  18812.8 ave 20524 max 17161 min
Histogram: 1 2 2 1 2 3 1 1 0 3

Total # of neighbors = 301004
Ave neighs/atom = 301.004
Neighbor list builds = 1000
Dangerous builds not checked
Setting up Verlet run ...
  Unit style    : real
  Current step  : 1000
  Time step     : 1
Per MPI rank memory allocation (min/avg/max) = 3.768 | 4.426 | 4.578 Mbytes
Step Temp E_pair E_mol TotEng Press Volume Lx Ly Lz S/CPU 
    1000    328.87123   -10341.156            0   -9361.8334    21598.141    784.68505    9.2235575    9.2235575    9.2235575            0 
    1100     329.4664   -10366.761            0   -9385.6664    14361.555    785.47318    9.2266445    9.2266445    9.2266445    55.942214 
    1200    326.85976   -10382.532            0   -9409.1993    9847.4854    787.71957    9.2354319    9.2354319    9.2354319    53.796251 
    1300    324.58244   -10397.936            0   -9431.3853    3069.3236    790.43174    9.2460192    9.2460192    9.2460192    49.566968 
    1400    316.79119   -10394.438            0   -9451.0875    384.59921    793.10547    9.2564327    9.2564327    9.2564327    58.593756 
    1500    318.77912    -10418.98            0   -9469.7098   -8239.2338    795.19194    9.2645427    9.2645427    9.2645427    55.822709 
    1600    298.54262   -10374.477            0   -9485.4682   -4806.4667    796.43734    9.2693768    9.2693768    9.2693768     38.80429 
    1700    307.05861   -10417.188            0   -9502.8195   -17549.232    796.75827    9.2706217    9.2706217    9.2706217     56.69413 
    1800    306.42054   -10429.342            0   -9516.8739   -12823.842    795.48328    9.2656741    9.2656741    9.2656741    46.229753 
    1900    305.31914   -10440.037            0   -9530.8485   -12188.079    792.89106    9.2555985    9.2555985    9.2555985    56.888134 
    2000    291.86342   -10412.481            0   -9543.3618   -12862.685    789.42149    9.2420784    9.2420784    9.2420784    60.131381 
Loop time of 19.0868 on 16 procs for 1000 steps with 1000 atoms

Performance: 4.527 ns/day, 5.302 hours/ns, 52.392 timesteps/s
94.8% CPU use with 16 MPI tasks x no OpenMP threads

MPI task timing breakdown:
Section |  min time  |  avg time  |  max time  |%varavg| %total
---------------------------------------------------------------
Pair    | 1.7354     | 1.9338     | 2.6225     |  13.8 | 10.13
Neigh   | 0.61905    | 0.67707    | 0.87428    |   7.0 |  3.55
Comm    | 0.50461    | 1.3902     | 1.6462     |  21.0 |  7.28
Output  | 9.6743     | 10.013     | 15.05      |  41.1 | 52.46
Modify  | 0.026623   | 5.0648     | 5.4045     |  57.8 | 26.54
Other   |            | 0.007424   |            |       |  0.04

Nlocal:    62.5 ave 66 max 59 min
Histogram: 3 1 2 0 0 3 0 4 2 1
Nghost:    1845.69 ave 1871 max 1822 min
Histogram: 2 1 1 1 3 3 2 2 0 1
Neighs:    0 ave 0 max 0 min
Histogram: 16 0 0 0 0 0 0 0 0 0
FullNghs:  18699.2 ave 19728 max 17573 min
Histogram: 3 0 2 1 0 2 2 3 2 1

Total # of neighbors = 299188
Ave neighs/atom = 299.188
Neighbor list builds = 1000
Dangerous builds not checked
Setting up Verlet run ...
  Unit style    : real
  Current step  : 2000
  Time step     : 1
Per MPI rank memory allocation (min/avg/max) = 3.768 | 4.477 | 4.578 Mbytes
Step Temp E_pair E_mol TotEng Press Volume Lx Ly Lz S/CPU 
    2000    291.86342   -10412.481            0   -9543.3618   -12862.685    789.42149    9.2420784    9.2420784    9.2420784            0 
    2100    301.94003   -10455.312            0   -9556.1862    7428.6962      785.481    9.2266751    9.2266751    9.2266751    49.335632 
    2200    305.48446   -10479.269            0    -9569.588   -3796.8958    781.68912     9.211804     9.211804     9.211804    46.149535 
    2300    294.90067   -10459.184            0   -9581.0199    7883.7511    777.98905    9.1972465    9.1972465    9.1972465    46.836225 
    2400    300.18525   -10486.674            0   -9592.7737    19322.693    775.12668    9.1859532    9.1859532    9.1859532    43.340599 
    2500    297.45435   -10491.368            0   -9605.5999    16533.291    773.42213    9.1792148    9.1792148    9.1792148    60.208816 
    2600    306.63748    -10530.49            0   -9617.3756    22123.976    772.85816    9.1769831    9.1769831    9.1769831    49.009751 
    2700    293.65261   -10504.066            0   -9629.6189   -3356.6251    773.20377    9.1783508    9.1783508    9.1783508    47.699098 
    2800     294.4868   -10515.814            0   -9638.8829     8865.165    773.91518    9.1811649    9.1811649    9.1811649    45.137948 
    2900    303.26018   -10550.628            0   -9647.5709   -4633.3169    775.14986    9.1860448    9.1860448    9.1860448    45.199436 
    3000    300.01877   -10547.386            0    -9653.981    1512.5459    776.60729    9.1917983    9.1917983    9.1917983    48.691359 
Loop time of 20.9156 on 16 procs for 1000 steps with 1000 atoms

Performance: 4.131 ns/day, 5.810 hours/ns, 47.811 timesteps/s
94.8% CPU use with 16 MPI tasks x no OpenMP threads

MPI task timing breakdown:
Section |  min time  |  avg time  |  max time  |%varavg| %total
---------------------------------------------------------------
Pair    | 1.817      | 2.0162     | 2.7709     |  14.5 |  9.64
Neigh   | 0.63836    | 0.68644    | 0.88594    |   6.5 |  3.28
Comm    | 0.4824     | 1.4388     | 1.6739     |  21.6 |  6.88
Output  | 11.836     | 12.145     | 16.738     |  34.0 | 58.07
Modify  | 0.02702    | 4.6213     | 4.9314     |  55.2 | 22.09
Other   |            | 0.007706   |            |       |  0.04

Nlocal:    62.5 ave 67 max 57 min
Histogram: 1 0 1 0 4 3 2 1 1 3
Nghost:    1860.69 ave 1880 max 1845 min
Histogram: 1 2 2 1 4 0 3 1 1 1
Neighs:    0 ave 0 max 0 min
Histogram: 16 0 0 0 0 0 0 0 0 0
FullNghs:  19012.1 ave 20677 max 17458 min
Histogram: 1 1 2 2 3 2 1 3 0 1

Total # of neighbors = 304194
Ave neighs/atom = 304.194
Neighbor list builds = 1000
Dangerous builds not checked
Setting up Verlet run ...
  Unit style    : real
  Current step  : 3000
  Time step     : 1
Per MPI rank memory allocation (min/avg/max) = 4.577 | 4.578 | 4.579 Mbytes
Step Temp E_pair E_mol TotEng Press Volume Lx Ly Lz S/CPU 
    3000    300.01877   -10547.386            0    -9653.981    1512.5459    776.60729    9.1917983    9.1917983    9.1917983            0 
    3100    295.70504   -10539.502            0   -9658.9426   -4639.0489    777.91083    9.1969383    9.1969383    9.1969383    57.133651 
    3200    294.97069   -10540.666            0   -9662.2936   -3214.3963     778.6519    9.1998578    9.1998578    9.1998578    35.111893 
    3300    288.48097   -10520.305            0   -9661.2578   -684.64468    779.12045    9.2017028    9.2017028    9.2017028    49.708827 
    3400    291.48863   -10528.123            0   -9660.1195   -18747.642    779.51073     9.203239     9.203239     9.203239    53.146069 
    3500    288.39255   -10515.367            0   -9656.5836    4654.7249    779.73101    9.2041058    9.2041058    9.2041058    64.396893 
    3600    308.93322   -10571.647            0   -9651.6971    4684.4015    779.69701     9.203972     9.203972     9.203972    53.246903 
    3700    297.01107   -10527.012            0   -9642.5633   -4661.6046    779.78443     9.204316     9.204316     9.204316    57.003976 
    3800    290.67395   -10498.821            0   -9633.2431    52.755002    779.77366    9.2042736    9.2042736    9.2042736    41.387444 
    3900    299.13297    -10513.94            0   -9623.1731   -855.00444    779.61047    9.2036315    9.2036315    9.2036315    45.927661 
    4000     288.3025    -10470.16            0   -9611.6443    7004.6853    779.65554    9.2038088    9.2038088    9.2038088    56.665041 
Loop time of 20.0351 on 16 procs for 1000 steps with 1000 atoms

Performance: 4.312 ns/day, 5.565 hours/ns, 49.912 timesteps/s
94.8% CPU use with 16 MPI tasks x no OpenMP threads

MPI task timing breakdown:
Section |  min time  |  avg time  |  max time  |%varavg| %total
---------------------------------------------------------------
Pair    | 1.8759     | 2.017      | 2.6925     |  13.0 | 10.07
Neigh   | 0.64531    | 0.68955    | 0.87586    |   6.2 |  3.44
Comm    | 0.55303    | 1.4147     | 1.599      |  19.8 |  7.06
Output  | 10.788     | 11.109     | 15.876     |  36.9 | 55.45
Modify  | 0.028866   | 4.7974     | 5.119      |  56.2 | 23.94
Other   |            | 0.007556   |            |       |  0.04

Nlocal:    62.5 ave 69 max 57 min
Histogram: 2 2 1 0 3 3 2 2 0 1
Nghost:    1868.69 ave 1889 max 1847 min
Histogram: 2 1 0 2 2 2 3 2 0 2
Neighs:    0 ave 0 max 0 min
Histogram: 16 0 0 0 0 0 0 0 0 0
FullNghs:  18930.2 ave 21263 max 17128 min
Histogram: 2 2 1 1 4 2 2 1 0 1

Total # of neighbors = 302884
Ave neighs/atom = 302.884
Neighbor list builds = 1000
Dangerous builds not checked
Setting up Verlet run ...
  Unit style    : real
  Current step  : 4000
  Time step     : 1
Per MPI rank memory allocation (min/avg/max) = 4.577 | 4.578 | 4.579 Mbytes
Step Temp E_pair E_mol TotEng Press Volume Lx Ly Lz S/CPU 
    4000     288.3025    -10470.16            0   -9611.6443    7004.6853    779.65554    9.2038088    9.2038088    9.2038088            0 
    4100    306.25349   -10515.151            0     -9603.18    10970.196    779.80419    9.2043937    9.2043937    9.2043937    37.196392 
    4200    297.18946   -10478.463            0   -9593.4839    9036.6943    780.10603    9.2055812    9.2055812    9.2055812    50.298754 
    4300    302.31838   -10485.555            0    -9585.303    14664.319    780.51643    9.2071952    9.2071952    9.2071952     42.92857 
    4400    302.91454   -10480.729            0   -9578.7013    356.80418    781.49359    9.2110359    9.2110359    9.2110359    41.651494 
    4500    307.49709   -10490.146            0   -9574.4727    -3750.597     782.5985    9.2153748    9.2153748    9.2153748    61.947875 
    4600    298.12755   -10456.203            0   -9568.4296   -11506.981    783.45597    9.2187392    9.2187392    9.2187392    53.583677 
    4700    303.48342   -10469.733            0   -9566.0114   -15236.388    783.50609    9.2189358    9.2189358    9.2189358    40.867588 
    4800    297.73941   -10446.999            0    -9560.382   -8732.0168    783.09455    9.2173214    9.2173214    9.2173214    49.717785 
    4900    304.84507   -10464.659            0   -9556.8827   -9328.3676    782.81912    9.2162407    9.2162407    9.2162407    43.595339 
    5000    299.85892   -10446.427            0   -9553.4985    7393.4184    782.21461    9.2138677    9.2138677    9.2138677    39.491654 
Loop time of 22.1717 on 16 procs for 1000 steps with 1000 atoms

Performance: 3.897 ns/day, 6.159 hours/ns, 45.103 timesteps/s
94.7% CPU use with 16 MPI tasks x no OpenMP threads

MPI task timing breakdown:
Section |  min time  |  avg time  |  max time  |%varavg| %total
---------------------------------------------------------------
Pair    | 1.8241     | 2.0023     | 2.6665     |  13.0 |  9.03
Neigh   | 0.63588    | 0.68675    | 0.86679    |   6.3 |  3.10
Comm    | 0.57439    | 1.4191     | 1.6501     |  19.7 |  6.40
Output  | 12.245     | 12.609     | 18.029     |  39.4 | 56.87
Modify  | 0.026351   | 5.4468     | 5.8122     |  60.0 | 24.57
Other   |            | 0.007536   |            |       |  0.03

Nlocal:    62.5 ave 67 max 59 min
Histogram: 1 5 2 0 0 2 1 2 2 1
Nghost:    1864.88 ave 1892 max 1847 min
Histogram: 1 1 6 1 2 2 1 0 1 1
Neighs:    0 ave 0 max 0 min
Histogram: 16 0 0 0 0 0 0 0 0 0
FullNghs:  18879.5 ave 20090 max 17924 min
Histogram: 5 1 2 0 1 1 1 1 1 3

Total # of neighbors = 302072
Ave neighs/atom = 302.072
Neighbor list builds = 1000
Dangerous builds not checked
Setting up Verlet run ...
  Unit style    : real
  Current step  : 5000
  Time step     : 1
Per MPI rank memory allocation (min/avg/max) = 4.577 | 4.578 | 4.579 Mbytes
Step Temp E_pair E_mol TotEng Press Volume Lx Ly Lz S/CPU 
    5000    299.85892   -10446.427            0   -9553.4985    7393.4184    782.21461    9.2138677    9.2138677    9.2138677            0 
    5100    308.19675   -10469.193            0   -9551.4361    14250.696     781.6339    9.2115871    9.2115871    9.2115871    56.579428 
    5200     308.9318   -10471.584            0   -9551.6381    7836.0546    781.34361    9.2104466    9.2104466    9.2104466    39.840647 
    5300    302.98543   -10457.268            0    -9555.029    16734.669    781.62337    9.2115457    9.2115457    9.2115457    44.959547 
    5400    301.83337   -10456.938            0   -9558.1296   -11963.658    782.53957    9.2151435    9.2151435    9.2151435    42.293554 
    5500    303.35622   -10468.932            0   -9565.5888    12574.321     783.1729    9.2176288    9.2176288    9.2176288    59.579371 
    5600    303.32623   -10478.355            0    -9575.101    1110.7488    784.16483    9.2215187    9.2215187    9.2215187    52.027871 
    5700     283.4799   -10428.242            0   -9584.0871    159.08608    785.10052    9.2251851    9.2251851    9.2251851    53.864676 
    5800    296.68613   -10477.832            0    -9594.351   -533.17227    786.10184    9.2291054    9.2291054    9.2291054    55.234048 
    5900    288.89346    -10465.43            0   -9605.1547   -4461.0213    787.04116    9.2327799    9.2327799    9.2327799    59.747601 
    6000     288.3603   -10472.794            0    -9614.106    3426.9861    788.38146    9.2380179    9.2380179    9.2380179    48.087368 
Loop time of 19.8868 on 16 procs for 1000 steps with 1000 atoms

Performance: 4.345 ns/day, 5.524 hours/ns, 50.285 timesteps/s
94.8% CPU use with 16 MPI tasks x no OpenMP threads

MPI task timing breakdown:
Section |  min time  |  avg time  |  max time  |%varavg| %total
---------------------------------------------------------------
Pair    | 1.7768     | 1.9653     | 2.7752     |  15.8 |  9.88
Neigh   | 0.63359    | 0.67762    | 0.88907    |   7.1 |  3.41
Comm    | 0.42035    | 1.4416     | 1.6731     |  23.2 |  7.25
Output  | 9.8856     | 10.256     | 15.767     |  44.4 | 51.57
Modify  | 0.025825   | 5.5385     | 5.9099     |  60.5 | 27.85
Other   |            | 0.007476   |            |       |  0.04

Nlocal:    62.5 ave 67 max 58 min
Histogram: 1 1 2 2 2 2 1 4 0 1
Nghost:    1857.12 ave 1874 max 1844 min
Histogram: 1 2 2 2 1 4 2 1 0 1
Neighs:    0 ave 0 max 0 min
Histogram: 16 0 0 0 0 0 0 0 0 0
FullNghs:  18733.9 ave 19970 max 17322 min
Histogram: 1 1 2 2 1 2 2 1 2 2

Total # of neighbors = 299742
Ave neighs/atom = 299.742
Neighbor list builds = 1000
Dangerous builds not checked
Setting up Verlet run ...
  Unit style    : real
  Current step  : 6000
  Time step     : 1
Per MPI rank memory allocation (min/avg/max) = 4.577 | 4.578 | 4.579 Mbytes
Step Temp E_pair E_mol TotEng Press Volume Lx Ly Lz S/CPU 
    6000     288.3603   -10472.794            0    -9614.106    3426.9861    788.38146    9.2380179    9.2380179    9.2380179            0 
    6100     293.9316   -10495.586            0   -9620.3079    17311.392    790.28989    9.2454661    9.2454661    9.2454661    53.248118 
    6200    305.31369   -10535.105            0   -9625.9331   -13518.792    792.22368     9.253001     9.253001     9.253001    47.050795 
    6300    281.55431   -10465.949            0   -9627.5282   -1903.7198    793.41094    9.2576209    9.2576209    9.2576209    44.253959 
    6400    295.06688   -10507.757            0   -9629.0985   -10119.167    793.88275    9.2594556    9.2594556    9.2594556    47.117003 
    6500    288.17321   -10485.724            0   -9627.5933   -10119.112    793.40716    9.2576063    9.2576063    9.2576063    50.734352 
    6600    291.49478   -10493.469            0   -9625.4469   -3102.3682    792.02423    9.2522244    9.2522244    9.2522244    52.970641 
    6700    275.70608   -10440.135            0   -9619.1295   -17615.588    789.89401     9.243922     9.243922     9.243922    51.926933 
    6800    285.01721   -10460.977            0   -9612.2444   -6912.9844     786.9073    9.2322564    9.2322564    9.2322564    45.821784 
    6900    290.77586       -10468            0   -9602.1196     1629.673    783.48012     9.218834     9.218834     9.218834    45.141605 
    7000    300.58949   -10483.885            0   -9588.7809     6038.777    779.74297    9.2041529    9.2041529    9.2041529    57.870483 
Loop time of 20.2957 on 16 procs for 1000 steps with 1000 atoms

Performance: 4.257 ns/day, 5.638 hours/ns, 49.271 timesteps/s
94.8% CPU use with 16 MPI tasks x no OpenMP threads

MPI task timing breakdown:
Section |  min time  |  avg time  |  max time  |%varavg| %total
---------------------------------------------------------------
Pair    | 1.7616     | 1.9426     | 2.552      |  12.4 |  9.57
Neigh   | 0.62585    | 0.68003    | 0.86313    |   6.4 |  3.35
Comm    | 0.62206    | 1.4147     | 1.6451     |  18.8 |  6.97
Output  | 10.942     | 11.275     | 16.224     |  38.0 | 55.56
Modify  | 0.026016   | 4.9757     | 5.3093     |  57.3 | 24.52
Other   |            | 0.007436   |            |       |  0.04

Nlocal:    62.5 ave 71 max 58 min
Histogram: 2 2 3 3 3 1 1 0 0 1
Nghost:    1858.38 ave 1896 max 1833 min
Histogram: 2 2 2 3 2 1 3 0 0 1
Neighs:    0 ave 0 max 0 min
Histogram: 16 0 0 0 0 0 0 0 0 0
FullNghs:  18945.9 ave 21651 max 17462 min
Histogram: 2 2 4 3 0 3 1 0 0 1

Total # of neighbors = 303134
Ave neighs/atom = 303.134
Neighbor list builds = 1000
Dangerous builds not checked
Setting up Verlet run ...
  Unit style    : real
  Current step  : 7000
  Time step     : 1
Per MPI rank memory allocation (min/avg/max) = 4.577 | 4.578 | 4.579 Mbytes
Step Temp E_pair E_mol TotEng Press Volume Lx Ly Lz S/CPU 
    7000    300.58949   -10483.885            0   -9588.7809     6038.777    779.74297    9.2041529    9.2041529    9.2041529            0 
    7100    312.03871   -10505.218            0   -9576.0199    9675.2057    776.31221     9.190634     9.190634     9.190634    52.984858 
    7200     308.7231   -10481.889            0   -9562.5643    38553.532    774.22548    9.1823918    9.1823918    9.1823918     48.81052 
    7300    312.46483   -10487.356            0   -9556.8888    23125.786    773.80165    9.1807159    9.1807159    9.1807159    51.896678 
    7400    307.08632   -10468.953            0   -9554.5019    16782.259    774.72456    9.1843644    9.1843644    9.1843644    49.954365 
    7500    305.31604    -10464.49            0    -9555.311    150.92817    776.51215     9.191423     9.191423     9.191423    48.595015 
    7600    300.62292   -10451.617            0   -9556.4134    2272.2961    778.82506    9.2005398    9.2005398    9.2005398    49.634728 
    7700    300.05846    -10452.09            0   -9558.5673   -6295.5394    781.49971    9.2110599    9.2110599    9.2110599    47.398816 
    7800    300.24038   -10453.651            0   -9559.5863    13415.325    784.01608    9.2209356    9.2209356    9.2209356     47.80351 
    7900    295.35536    -10440.35            0   -9560.8325   -1566.2275    786.47963    9.2305836    9.2305836    9.2305836     56.88672 
    8000    298.98234   -10452.203            0   -9561.8847   -3732.8087    788.30278    9.2377106    9.2377106    9.2377106    55.218575 
Loop time of 19.7079 on 16 procs for 1000 steps with 1000 atoms

Performance: 4.384 ns/day, 5.474 hours/ns, 50.741 timesteps/s
94.8% CPU use with 16 MPI tasks x no OpenMP threads

MPI task timing breakdown:
Section |  min time  |  avg time  |  max time  |%varavg| %total
---------------------------------------------------------------
Pair    | 1.7961     | 2.0079     | 2.7966     |  15.0 | 10.19
Neigh   | 0.62872    | 0.68403    | 0.89996    |   7.1 |  3.47
Comm    | 0.47967    | 1.4843     | 1.7502     |  22.1 |  7.53
Output  | 10.672     | 10.976     | 15.497     |  35.2 | 55.70
Modify  | 0.025905   | 4.5479     | 4.8533     |  54.7 | 23.08
Other   |            | 0.007495   |            |       |  0.04

Nlocal:    62.5 ave 69 max 58 min
Histogram: 1 3 3 1 3 3 0 0 1 1
Nghost:    1844.81 ave 1866 max 1833 min
Histogram: 3 1 2 3 4 1 1 0 0 1
Neighs:    0 ave 0 max 0 min
Histogram: 16 0 0 0 0 0 0 0 0 0
FullNghs:  18724.8 ave 20729 max 17224 min
Histogram: 1 0 4 2 4 3 0 0 1 1

Total # of neighbors = 299596
Ave neighs/atom = 299.596
Neighbor list builds = 1000
Dangerous builds not checked
Setting up Verlet run ...
  Unit style    : real
  Current step  : 8000
  Time step     : 1
Per MPI rank memory allocation (min/avg/max) = 4.577 | 4.578 | 4.579 Mbytes
Step Temp E_pair E_mol TotEng Press Volume Lx Ly Lz S/CPU 
    8000    298.98234   -10452.203            0   -9561.8847   -3732.8087    788.30278    9.2377106    9.2377106    9.2377106            0 
    8100    300.47618   -10460.655            0   -9565.8885   -3821.6101    789.74236    9.2433304    9.2433304    9.2433304    50.792064 
    8200    301.22965   -10466.306            0   -9569.2959   -13081.164    790.85159     9.247656     9.247656     9.247656    48.624093 
    8300    306.34735   -10486.218            0   -9573.9679   -18501.153    791.33347    9.2495338    9.2495338    9.2495338    49.165111 
    8400    295.02462   -10457.419            0   -9578.8856   -2528.2959     790.7542    9.2472763    9.2472763    9.2472763    51.561722 
    8500    295.44623   -10464.017            0   -9584.2284    7374.2549    789.63655    9.2429176    9.2429176    9.2429176     42.66949 
    8600    296.48188   -10474.055            0   -9591.1831   -1856.2562    788.73802    9.2394104    9.2394104    9.2394104    49.640324 
    8700    310.71455   -10524.707            0   -9599.4519    -954.4692    787.91084    9.2361794    9.2361794    9.2361794    36.974989 
    8800    294.36743   -10481.119            0   -9604.5433     13793.22    787.15683    9.2332322    9.2332322    9.2332322    58.216173 
    8900    297.03953   -10494.639            0   -9610.1062   -6522.4317    786.60182    9.2310616    9.2310616    9.2310616    57.164314 
    9000     289.3655   -10475.965            0   -9614.2838    1664.7645    786.01633    9.2287707    9.2287707    9.2287707    46.499897 
Loop time of 20.6791 on 16 procs for 1000 steps with 1000 atoms

Performance: 4.178 ns/day, 5.744 hours/ns, 48.358 timesteps/s
94.8% CPU use with 16 MPI tasks x no OpenMP threads

MPI task timing breakdown:
Section |  min time  |  avg time  |  max time  |%varavg| %total
---------------------------------------------------------------
Pair    | 1.7717     | 1.9467     | 2.6794     |  14.2 |  9.41
Neigh   | 0.64304    | 0.67914    | 0.87125    |   6.2 |  3.28
Comm    | 0.49758    | 1.4225     | 1.6063     |  20.7 |  6.88
Output  | 11.618     | 11.932     | 16.595     |  34.9 | 57.70
Modify  | 0.02663    | 4.6912     | 5.0056     |  55.6 | 22.69
Other   |            | 0.007435   |            |       |  0.04

Nlocal:    62.5 ave 66 max 58 min
Histogram: 1 0 2 3 0 1 4 2 1 2
Nghost:    1846.19 ave 1879 max 1817 min
Histogram: 2 0 4 2 1 2 2 0 1 2
Neighs:    0 ave 0 max 0 min
Histogram: 16 0 0 0 0 0 0 0 0 0
FullNghs:  18782.5 ave 20105 max 17338 min
Histogram: 1 0 3 2 1 4 0 2 1 2

Total # of neighbors = 300520
Ave neighs/atom = 300.52
Neighbor list builds = 1000
Dangerous builds not checked
Setting up Verlet run ...
  Unit style    : real
  Current step  : 9000
  Time step     : 1
Per MPI rank memory allocation (min/avg/max) = 4.577 | 4.578 | 4.579 Mbytes
Step Temp E_pair E_mol TotEng Press Volume Lx Ly Lz S/CPU 
    9000     289.3655   -10475.965            0   -9614.2838    1664.7645    786.01633    9.2287707    9.2287707    9.2287707            0 
    9100    291.23635   -10484.128            0   -9616.8758    9753.4876    785.19272    9.2255462    9.2255462    9.2255462    56.398259 
    9200    300.01347   -10511.274            0    -9617.885    9667.1876    784.66111    9.2234637    9.2234637    9.2234637    40.987354 
    9300    304.97059   -10526.002            0   -9617.8514    11967.774    784.37796    9.2223541    9.2223541    9.2223541    41.412372 
    9400    296.92497   -10499.819            0   -9615.6273    2396.7897    784.64556    9.2234028    9.2234028    9.2234028    60.140611 
    9500    301.71845   -10511.176            0   -9612.7103   -1772.6566     784.8949    9.2243797    9.2243797    9.2243797    46.557926 
    9600    296.00011   -10487.524            0   -9606.0862    3528.4579    785.06589    9.2250494    9.2250494    9.2250494    45.385577 
    9700    298.52498   -10485.634            0   -9596.6778    2439.9518    785.35979    9.2262005    9.2262005    9.2262005    54.749715 
    9800    297.85629   -10471.372            0   -9584.4073   -13794.528    785.62244    9.2272289    9.2272289    9.2272289    40.340914 
    9900    307.00527   -10485.579            0   -9571.3697    8225.8351    785.68973    9.2274923    9.2274923    9.2274923    56.389698 
   10000     306.3454   -10471.953            0   -9559.7085    9110.4638    786.00842    9.2287397    9.2287397    9.2287397    48.650352 
Loop time of 20.7758 on 16 procs for 1000 steps with 1000 atoms

Performance: 4.159 ns/day, 5.771 hours/ns, 48.133 timesteps/s
94.8% CPU use with 16 MPI tasks x no OpenMP threads

MPI task timing breakdown:
Section |  min time  |  avg time  |  max time  |%varavg| %total
---------------------------------------------------------------
Pair    | 1.8069     | 1.979      | 2.7621     |  15.7 |  9.53
Neigh   | 0.63906    | 0.68512    | 0.89524    |   7.5 |  3.30
Comm    | 0.4571     | 1.4502     | 1.6422     |  23.4 |  6.98
Output  | 11.097     | 11.445     | 16.624     |  39.5 | 55.09
Modify  | 0.028124   | 5.2088     | 5.5577     |  58.6 | 25.07
Other   |            | 0.007498   |            |       |  0.04

Nlocal:    62.5 ave 70 max 57 min
Histogram: 1 0 2 8 0 0 4 0 0 1
Nghost:    1857.25 ave 1865 max 1850 min
Histogram: 2 0 0 3 3 3 2 1 1 1
Neighs:    0 ave 0 max 0 min
Histogram: 16 0 0 0 0 0 0 0 0 0
FullNghs:  18775.5 ave 21178 max 17075 min
Histogram: 1 0 2 8 0 1 3 0 0 1

Total # of neighbors = 300408
Ave neighs/atom = 300.408
Neighbor list builds = 1000
Dangerous builds not checked
Setting up Verlet run ...
  Unit style    : real
  Current step  : 10000
  Time step     : 1
Per MPI rank memory allocation (min/avg/max) = 4.577 | 4.578 | 4.579 Mbytes
Step Temp E_pair E_mol TotEng Press Volume Lx Ly Lz S/CPU 
   10000     306.3454   -10471.953            0   -9559.7085    9110.4638    786.00842    9.2287397    9.2287397    9.2287397            0 
   10100    312.93948    -10481.85            0   -9549.9695    15237.651    786.66398    9.2313047    9.2313047    9.2313047    40.065998 
   10200    308.64655   -10461.117            0   -9542.0204    5469.4103    787.52056    9.2346541    9.2346541    9.2346541    56.736859 
   10300    297.05348    -10420.86            0   -9536.2853   -15234.697    788.44475    9.2382651    9.2382651    9.2382651    54.393733 
   10400    308.97407   -10455.774            0   -9535.7017   -3427.5931    788.99728    9.2404227    9.2404227    9.2404227    53.008054 
   10500    315.71209   -10476.751            0   -9536.6138   -7096.0704    789.24303    9.2413819    9.2413819    9.2413819    56.895168 
   10600    312.27001    -10468.09            0   -9538.2031   -13244.657    789.22871     9.241326     9.241326     9.241326    48.098839 
   10700    317.99015   -10488.899            0   -9541.9787    4427.5875    788.76668    9.2395223    9.2395223    9.2395223    49.051912 
   10800    303.62444   -10450.342            0   -9546.2005    3476.6879    788.49915    9.2384776    9.2384776    9.2384776    57.088543 
   10900     314.3317   -10490.612            0   -9554.5863    1697.0938    788.48742    9.2384318    9.2384318    9.2384318    49.038197 
   11000    302.74703   -10464.796            0   -9563.2671    2647.5389    788.58988    9.2388319    9.2388319    9.2388319    51.030932 
Loop time of 19.6092 on 16 procs for 1000 steps with 1000 atoms

Performance: 4.406 ns/day, 5.447 hours/ns, 50.996 timesteps/s
94.8% CPU use with 16 MPI tasks x no OpenMP threads

MPI task timing breakdown:
Section |  min time  |  avg time  |  max time  |%varavg| %total
---------------------------------------------------------------
Pair    | 1.801      | 1.9689     | 2.6705     |  14.1 | 10.04
Neigh   | 0.6322     | 0.68401    | 0.86968    |   6.4 |  3.49
Comm    | 0.52192    | 1.4097     | 1.6036     |  21.0 |  7.19
Output  | 10.487     | 10.804     | 15.512     |  37.0 | 55.10
Modify  | 0.026279   | 4.7354     | 5.0532     |  55.9 | 24.15
Other   |            | 0.007456   |            |       |  0.04

Nlocal:    62.5 ave 66 max 60 min
Histogram: 3 1 0 4 0 3 4 0 0 1
Nghost:    1852.56 ave 1873 max 1831 min
Histogram: 2 0 1 2 2 4 1 0 3 1
Neighs:    0 ave 0 max 0 min
Histogram: 16 0 0 0 0 0 0 0 0 0
FullNghs:  18704.5 ave 19717 max 17911 min
Histogram: 3 1 1 3 0 3 3 1 0 1

Total # of neighbors = 299272
Ave neighs/atom = 299.272
Neighbor list builds = 1000
Dangerous builds not checked
Setting up Verlet run ...
  Unit style    : real
  Current step  : 11000
  Time step     : 1
Per MPI rank memory allocation (min/avg/max) = 4.577 | 4.578 | 4.579 Mbytes
Step Temp E_pair E_mol TotEng Press Volume Lx Ly Lz S/CPU 
   11000    302.74703   -10464.796            0   -9563.2671    2647.5389    788.58988    9.2388319    9.2388319    9.2388319            0 
   11100    320.53635   -10529.721            0   -9575.2185    -7453.685    788.62377    9.2389643    9.2389643    9.2389643    56.082113 
   11200    296.66169   -10468.302            0   -9584.8941   -3365.2867    788.51074    9.2385228    9.2385228    9.2385228    43.657589 
   11300    294.29926   -10471.653            0     -9595.28    7088.5582    787.91013    9.2361766    9.2361766    9.2361766    50.772938 
   11400    306.99003   -10516.752            0   -9602.5878   -8883.3612    787.05994    9.2328533    9.2328533    9.2328533    46.081495 
   11500    300.75832   -10502.288            0   -9606.6812   -3682.3289    786.12234    9.2291856    9.2291856    9.2291856    50.505325 
   11600    297.51884   -10494.709            0   -9608.7486    7282.9164    785.37574    9.2262629    9.2262629    9.2262629    47.512912 
   11700    305.37255   -10518.484            0   -9609.1368   -15117.147    784.82294    9.2240978    9.2240978    9.2240978    46.638985 
   11800    298.93271    -10498.73            0   -9608.5597   -9168.3465    784.04797    9.2210606    9.2210606    9.2210606    46.105069 
   11900    294.47172   -10484.035            0   -9607.1485   -2970.4445    783.00534    9.2169714    9.2169714    9.2169714    56.249678 
   12000    295.15869   -10486.632            0   -9607.7001   -156.79788    781.72781     9.211956     9.211956     9.211956    56.559729 
Loop time of 20.1569 on 16 procs for 1000 steps with 1000 atoms

Performance: 4.286 ns/day, 5.599 hours/ns, 49.611 timesteps/s
94.8% CPU use with 16 MPI tasks x no OpenMP threads

MPI task timing breakdown:
Section |  min time  |  avg time  |  max time  |%varavg| %total
---------------------------------------------------------------
Pair    | 1.8036     | 1.9582     | 2.6357     |  13.6 |  9.71
Neigh   | 0.63503    | 0.67997    | 0.8769     |   6.8 |  3.37
Comm    | 0.55607    | 1.4311     | 1.6195     |  20.5 |  7.10
Output  | 10.095     | 10.471     | 16.053     |  44.5 | 51.95
Modify  | 0.026175   | 5.6095     | 5.9851     |  60.9 | 27.83
Other   |            | 0.007457   |            |       |  0.04

Nlocal:    62.5 ave 68 max 56 min
Histogram: 1 2 0 3 1 2 0 4 0 3
Nghost:    1852.19 ave 1875 max 1831 min
Histogram: 4 0 2 0 2 2 0 2 3 1
Neighs:    0 ave 0 max 0 min
Histogram: 16 0 0 0 0 0 0 0 0 0
FullNghs:  18879.5 ave 20610 max 16848 min
Histogram: 1 2 1 2 1 2 0 4 0 3

Total # of neighbors = 302072
Ave neighs/atom = 302.072
Neighbor list builds = 1000
Dangerous builds not checked
Setting up Verlet run ...
  Unit style    : real
  Current step  : 12000
  Time step     : 1
Per MPI rank memory allocation (min/avg/max) = 4.577 | 4.578 | 4.579 Mbytes
Step Temp E_pair E_mol TotEng Press Volume Lx Ly Lz S/CPU 
   12000    295.15869   -10486.632            0   -9607.7001   -156.79788    781.72781     9.211956     9.211956     9.211956            0 
   12100    304.49846   -10514.405            0   -9607.6604    5394.6258    780.85736    9.2085356    9.2085356    9.2085356    50.068122 
   12200    318.09359   -10556.605            0   -9609.3768    4612.1436     780.2568    9.2061742    9.2061742    9.2061742    49.315259 
   12300    304.03541   -10516.338            0   -9610.9722    643.81399    779.33156    9.2025338    9.2025338    9.2025338    56.033069 
   12400    302.31946   -10513.494            0   -9613.2386    10971.758    778.43506    9.1990038    9.1990038    9.1990038    53.185836 
   12500    291.36806   -10482.606            0   -9614.9618    11851.111    778.40021    9.1988665    9.1988665    9.1988665    44.097982 
   12600    300.12458   -10512.643            0    -9618.923    6288.3572    779.31713     9.202477     9.202477     9.202477    44.251472 
   12700    298.37658   -10513.274            0   -9624.7599    732.76706    781.08609    9.2094346    9.2094346    9.2094346    48.082333 
   12800    296.03425   -10511.596            0   -9630.0562    -12407.08    783.13924    9.2174968    9.2174968    9.2174968    61.641079 
   12900     297.2991   -10522.035            0    -9636.729   -6396.1798    784.77119     9.223895     9.223895     9.223895    62.830861 
   13000    286.53746   -10495.867            0   -9642.6075   -14082.553    785.86284    9.2281699    9.2281699    9.2281699    41.190359 
Loop time of 19.9388 on 16 procs for 1000 steps with 1000 atoms

Performance: 4.333 ns/day, 5.539 hours/ns, 50.153 timesteps/s
94.8% CPU use with 16 MPI tasks x no OpenMP threads

MPI task timing breakdown:
Section |  min time  |  avg time  |  max time  |%varavg| %total
---------------------------------------------------------------
Pair    | 1.8239     | 1.9694     | 2.614      |  12.5 |  9.88
Neigh   | 0.63898    | 0.67696    | 0.84728    |   5.8 |  3.40
Comm    | 0.59907    | 1.4145     | 1.5643     |  18.5 |  7.09
Output  | 10.57      | 10.903     | 15.843     |  38.6 | 54.68
Modify  | 0.026418   | 4.9679     | 5.3012     |  57.2 | 24.92
Other   |            | 0.007461   |            |       |  0.04

Nlocal:    62.5 ave 67 max 57 min
Histogram: 1 0 1 2 1 1 5 2 1 2
Nghost:    1853.88 ave 1867 max 1837 min
Histogram: 1 0 2 2 1 3 1 2 0 4
Neighs:    0 ave 0 max 0 min
Histogram: 16 0 0 0 0 0 0 0 0 0
FullNghs:  18807.6 ave 20097 max 17026 min
Histogram: 1 0 1 2 2 0 6 2 0 2

Total # of neighbors = 300922
Ave neighs/atom = 300.922
Neighbor list builds = 1000
Dangerous builds not checked
Setting up Verlet run ...
  Unit style    : real
  Current step  : 13000
  Time step     : 1
Per MPI rank memory allocation (min/avg/max) = 4.577 | 4.578 | 4.579 Mbytes
Step Temp E_pair E_mol TotEng Press Volume Lx Ly Lz S/CPU 
   13000    286.53746   -10495.867            0   -9642.6075   -14082.553    785.86284    9.2281699    9.2281699    9.2281699            0 
   13100    308.68562   -10571.016            0   -9651.8025    -9751.274    786.24389    9.2296612    9.2296612    9.2296612     51.36679 
   13200     292.6559   -10528.865            0   -9657.3854   -5716.1799    785.88516    9.2282573    9.2282573    9.2282573    52.269307 
   13300    283.00777   -10505.149            0      -9662.4   -12576.756    784.86731    9.2242716    9.2242716    9.2242716    45.615088 
   13400    292.52448   -10538.596            0   -9667.5085   -5581.0189    783.35964    9.2183614    9.2183614    9.2183614    50.932021 
   13500    282.48089   -10510.727            0   -9669.5476   -3412.8734     781.6363    9.2115965    9.2115965    9.2115965    56.633612 
   13600    293.62327   -10545.657            0   -9671.2975   -15331.775    779.59164    9.2035574    9.2035574    9.2035574    45.481954 
   13700    284.18729    -10515.36            0   -9669.0987   -6414.8588    776.92997    9.1930712    9.1930712    9.1930712    42.176494 
   13800    289.74071   -10526.454            0   -9663.6557    2128.3952    773.65422    9.1801329    9.1801329    9.1801329     60.79476 
   13900    297.04356   -10538.501            0   -9653.9555    15084.857    770.10219    9.1660619    9.1660619    9.1660619    50.481626 
   14000     310.0424   -10563.887            0   -9640.6335    8101.7185    766.95608    9.1535628    9.1535628    9.1535628    48.020487 
Loop time of 20.0593 on 16 procs for 1000 steps with 1000 atoms

Performance: 4.307 ns/day, 5.572 hours/ns, 49.852 timesteps/s
94.8% CPU use with 16 MPI tasks x no OpenMP threads

MPI task timing breakdown:
Section |  min time  |  avg time  |  max time  |%varavg| %total
---------------------------------------------------------------
Pair    | 1.8411     | 1.9804     | 2.6996     |  13.7 |  9.87
Neigh   | 0.63538    | 0.67937    | 0.87635    |   6.7 |  3.39
Comm    | 0.49903    | 1.4151     | 1.5957     |  20.7 |  7.05
Output  | 10.211     | 10.573     | 15.949     |  42.7 | 52.71
Modify  | 0.025841   | 5.4044     | 5.7668     |  59.7 | 26.94
Other   |            | 0.007485   |            |       |  0.04

Nlocal:    62.5 ave 69 max 56 min
Histogram: 1 1 2 3 1 1 4 1 0 2
Nghost:    1899.31 ave 1914 max 1885 min
Histogram: 2 2 1 1 2 2 1 1 3 1
Neighs:    0 ave 0 max 0 min
Histogram: 16 0 0 0 0 0 0 0 0 0
FullNghs:  19237.5 ave 21281 max 17198 min
Histogram: 1 1 3 1 2 2 3 1 0 2

Total # of neighbors = 307800
Ave neighs/atom = 307.8
Neighbor list builds = 1000
Dangerous builds not checked
Setting up Verlet run ...
  Unit style    : real
  Current step  : 14000
  Time step     : 1
Per MPI rank memory allocation (min/avg/max) = 4.577 | 4.578 | 4.579 Mbytes
Step Temp E_pair E_mol TotEng Press Volume Lx Ly Lz S/CPU 
   14000     310.0424   -10563.887            0   -9640.6335    8101.7185    766.95608    9.1535628    9.1535628    9.1535628            0 
   14100    307.27474   -10540.288            0   -9625.2766    14769.837     764.4106    9.1434249    9.1434249    9.1434249    48.967241 
   14200    309.27235   -10534.233            0   -9613.2723    16698.466    763.21869    9.1386701    9.1386701    9.1386701    40.096407 
   14300    301.48855    -10500.32            0   -9602.5389    17802.322    763.74459    9.1407686    9.1407686    9.1407686    52.599514 
   14400    295.22976   -10474.883            0   -9595.7393    21823.121    765.82357    9.1490551    9.1490551    9.1490551    48.210059 
   14500    308.58964   -10511.552            0   -9592.6244     9591.802    769.20414    9.1624976    9.1624976    9.1624976    47.782513 
   14600    296.20097   -10471.176            0   -9589.1396    8099.6167    773.67832    9.1802282    9.1802282    9.1802282    56.325958 
   14700    301.45784   -10485.983            0    -9588.293    10847.372    779.10861    9.2016562    9.2016562    9.2016562    46.836068 
   14800    293.58804   -10461.586            0   -9587.3313    1506.9351    784.99223    9.2247609    9.2247609    9.2247609     45.85327 
   14900     294.1754   -10460.578            0   -9584.5743    1095.9003    790.53613    9.2464262    9.2464262    9.2464262    58.261398 
   15000    306.71558   -10496.008            0   -9582.6612   -12087.322    795.25345    9.2647816    9.2647816    9.2647816    46.663896 
Loop time of 20.5552 on 16 procs for 1000 steps with 1000 atoms

Performance: 4.203 ns/day, 5.710 hours/ns, 48.650 timesteps/s
94.8% CPU use with 16 MPI tasks x no OpenMP threads

MPI task timing breakdown:
Section |  min time  |  avg time  |  max time  |%varavg| %total
---------------------------------------------------------------
Pair    | 1.8443     | 2.0245     | 2.6829     |  12.7 |  9.85
Neigh   | 0.63191    | 0.68378    | 0.87889    |   6.7 |  3.33
Comm    | 0.59933    | 1.4529     | 1.6847     |  19.4 |  7.07
Output  | 11.393     | 11.706     | 16.355     |  35.1 | 56.95
Modify  | 0.030253   | 4.6803     | 4.9936     |  55.5 | 22.77
Other   |            | 0.007556   |            |       |  0.04

Nlocal:    62.5 ave 69 max 55 min
Histogram: 1 0 3 0 2 5 2 0 1 2
Nghost:    1858.5 ave 1870 max 1847 min
Histogram: 2 3 0 2 2 1 1 0 1 4
Neighs:    0 ave 0 max 0 min
Histogram: 16 0 0 0 0 0 0 0 0 0
FullNghs:  18558 ave 20538 max 16339 min
Histogram: 1 0 1 2 2 6 1 0 1 2

Total # of neighbors = 296928
Ave neighs/atom = 296.928
Neighbor list builds = 1000
Dangerous builds not checked
Setting up Verlet run ...
  Unit style    : real
  Current step  : 15000
  Time step     : 1
Per MPI rank memory allocation (min/avg/max) = 4.577 | 4.578 | 4.579 Mbytes
Step Temp E_pair E_mol TotEng Press Volume Lx Ly Lz S/CPU 
   15000    306.71558   -10496.008            0   -9582.6612   -12087.322    795.25345    9.2647816    9.2647816    9.2647816            0 
   15100    294.46599   -10454.623            0   -9577.7531   -14226.949    798.54679    9.2775533    9.2775533    9.2775533    51.862106 
   15200    301.71417   -10472.677            0   -9574.2234   -11721.736    800.50604    9.2851346    9.2851346    9.2851346    57.078881 
   15300    297.32592   -10452.734            0   -9567.3481   -28472.012    801.25313    9.2880222    9.2880222    9.2880222     47.10452 
   15400    299.87904   -10452.686            0   -9559.6976   -22415.808    800.36427    9.2845864    9.2845864    9.2845864    54.085638 
   15500    302.43681   -10452.182            0   -9551.5768   -20705.069    797.82889    9.2747722    9.2747722    9.2747722    46.846395 
   15600    308.16716   -10460.288            0   -9542.6193   -7179.6291    794.29682    9.2610652    9.2610652    9.2610652    47.646201 
   15700    313.02462   -10464.946            0   -9532.8121   -3121.7149    790.35265    9.2457108    9.2457108    9.2457108    54.177719 
   15800    307.92025   -10441.741            0   -9524.8067   -3361.6527     786.4378    9.2304199    9.2304199    9.2304199    38.793981 
   15900    311.03243   -10444.831            0   -9518.6293    10389.175     782.9898    9.2169105    9.2169105    9.2169105    45.217309 
   16000     318.3846   -10464.334            0   -9516.2391    684.82272    780.60728    9.2075524    9.2075524    9.2075524    47.346988 
Loop time of 20.6326 on 16 procs for 1000 steps with 1000 atoms

Performance: 4.188 ns/day, 5.731 hours/ns, 48.467 timesteps/s
94.7% CPU use with 16 MPI tasks x no OpenMP threads

MPI task timing breakdown:
Section |  min time  |  avg time  |  max time  |%varavg| %total
---------------------------------------------------------------
Pair    | 1.7346     | 1.9163     | 2.4762     |  11.7 |  9.29
Neigh   | 0.62945    | 0.67579    | 0.84377    |   5.7 |  3.28
Comm    | 0.64835    | 1.3768     | 1.5847     |  17.6 |  6.67
Output  | 11.295     | 11.632     | 16.627     |  37.8 | 56.37
Modify  | 0.028532   | 5.0247     | 5.3616     |  57.5 | 24.35
Other   |            | 0.00743    |            |       |  0.04

Nlocal:    62.5 ave 66 max 54 min
Histogram: 1 0 0 0 1 4 1 0 2 7
Nghost:    1871.75 ave 1904 max 1847 min
Histogram: 2 2 1 1 4 2 1 2 0 1
Neighs:    0 ave 0 max 0 min
Histogram: 16 0 0 0 0 0 0 0 0 0
FullNghs:  18911.1 ave 20072 max 16303 min
Histogram: 1 0 0 0 3 2 1 0 6 3

Total # of neighbors = 302578
Ave neighs/atom = 302.578
Neighbor list builds = 1000
Dangerous builds not checked
Setting up Verlet run ...
  Unit style    : real
  Current step  : 16000
  Time step     : 1
Per MPI rank memory allocation (min/avg/max) = 4.577 | 4.578 | 4.579 Mbytes
Step Temp E_pair E_mol TotEng Press Volume Lx Ly Lz S/CPU 
   16000     318.3846   -10464.334            0   -9516.2391    684.82272    780.60728    9.2075524    9.2075524    9.2075524            0 
   16100    318.58513   -10464.567            0    -9515.875    11294.788    779.08396    9.2015591    9.2015591    9.2015591     49.05878 
   16200    315.37563   -10459.761            0   -9520.6263    15712.711    778.67813    9.1999611    9.1999611    9.1999611    56.865683 
   16300    313.23824   -10464.126            0   -9531.3557    8390.9466    779.29856    9.2024039    9.2024039    9.2024039    54.462397 
   16400    301.86253   -10448.713            0    -9549.818    11989.644    780.25946    9.2061846    9.2061846    9.2061846    36.214615 
   16500    304.57041   -10478.286            0   -9571.3269    2134.6451    781.65042     9.211652     9.211652     9.211652    54.057709 
   16600    307.89807   -10505.945            0   -9589.0776    1716.2181    783.21985    9.2178131    9.2178131    9.2178131    55.861599 
   16700    301.35691   -10498.714            0   -9601.3249   -1773.3458    785.07683    9.2250923    9.2250923    9.2250923    47.928763 
   16800     291.4533   -10475.841            0   -9607.9429   -8883.9853    786.82323    9.2319276    9.2319276    9.2319276    59.914414 
   16900    305.39932   -10523.132            0   -9613.7051   -12043.752    787.84447      9.23592      9.23592      9.23592    44.722873 
   17000    287.63034   -10473.456            0   -9616.9416   -19691.039    788.34362    9.2378701    9.2378701    9.2378701    55.588444 
Loop time of 19.8248 on 16 procs for 1000 steps with 1000 atoms

Performance: 4.358 ns/day, 5.507 hours/ns, 50.442 timesteps/s
94.8% CPU use with 16 MPI tasks x no OpenMP threads

MPI task timing breakdown:
Section |  min time  |  avg time  |  max time  |%varavg| %total
---------------------------------------------------------------
Pair    | 1.8301     | 1.9965     | 2.6436     |  13.1 | 10.07
Neigh   | 0.62975    | 0.68554    | 0.87816    |   6.5 |  3.46
Comm    | 0.58863    | 1.4294     | 1.6188     |  19.9 |  7.21
Output  | 9.9316     | 10.294     | 15.677     |  43.3 | 51.92
Modify  | 0.028594   | 5.4121     | 5.7747     |  59.7 | 27.30
Other   |            | 0.007495   |            |       |  0.04

Nlocal:    62.5 ave 71 max 57 min
Histogram: 2 0 4 3 3 1 1 1 0 1
Nghost:    1857.5 ave 1873 max 1845 min
Histogram: 3 0 2 2 2 2 1 1 2 1
Neighs:    0 ave 0 max 0 min
Histogram: 16 0 0 0 0 0 0 0 0 0
FullNghs:  18722 ave 21348 max 16961 min
Histogram: 1 1 4 4 3 0 1 1 0 1

Total # of neighbors = 299552
Ave neighs/atom = 299.552
Neighbor list builds = 1000
Dangerous builds not checked
Setting up Verlet run ...
  Unit style    : real
  Current step  : 17000
  Time step     : 1
Per MPI rank memory allocation (min/avg/max) = 4.577 | 4.578 | 4.579 Mbytes
Step Temp E_pair E_mol TotEng Press Volume Lx Ly Lz S/CPU 
   17000    287.63034   -10473.456            0   -9616.9416   -19691.039    788.34362    9.2378701    9.2378701    9.2378701            0 
   17100    304.19805   -10527.084            0   -9621.2337   -2141.6763     788.3297    9.2378158    9.2378158    9.2378158    51.446758 
   17200    308.42717   -10543.462            0   -9625.0186   -6828.3572    788.18742      9.23726      9.23726      9.23726    44.942253 
   17300    297.41936   -10514.163            0   -9628.4988   -8113.4645    787.54976    9.2347682    9.2347682    9.2347682    48.526264 
   17400    298.27154   -10520.528            0   -9632.3265   -2192.2308    786.21996    9.2295676    9.2295676    9.2295676    45.297322 
   17500    294.72509   -10511.991            0   -9634.3498   -1442.2779    784.26503    9.2219115    9.2219115    9.2219115    43.464217 
   17600    298.70178   -10526.014            0    -9636.531    1215.3938    782.14593    9.2135981    9.2135981    9.2135981    56.552034 
   17700    292.07353   -10506.516            0   -9636.7712    13791.009    780.20971     9.205989     9.205989     9.205989    54.426268 
   17800    292.11843   -10506.562            0   -9636.6827   -5793.7245     778.9227    9.2009242    9.2009242    9.2009242    45.747367 
   17900    291.01948    -10502.18            0   -9635.5735   -616.26008    778.10037    9.1976852    9.1976852    9.1976852    47.739777 
   18000    300.92958   -10531.378            0   -9635.2611    8419.1298    777.71336      9.19616      9.19616      9.19616    56.706343 
Loop time of 20.3877 on 16 procs for 1000 steps with 1000 atoms

Performance: 4.238 ns/day, 5.663 hours/ns, 49.049 timesteps/s
94.8% CPU use with 16 MPI tasks x no OpenMP threads

MPI task timing breakdown:
Section |  min time  |  avg time  |  max time  |%varavg| %total
---------------------------------------------------------------
Pair    | 1.8176     | 1.9772     | 2.7461     |  14.7 |  9.70
Neigh   | 0.63853    | 0.68356    | 0.90249    |   7.3 |  3.35
Comm    | 0.47681    | 1.4641     | 1.6685     |  21.9 |  7.18
Output  | 10.344     | 10.715     | 16.228     |  43.5 | 52.56
Modify  | 0.025778   | 5.5402     | 5.9117     |  60.5 | 27.17
Other   |            | 0.007487   |            |       |  0.04

Nlocal:    62.5 ave 68 max 57 min
Histogram: 1 2 0 3 2 3 1 2 0 2
Nghost:    1865.69 ave 1899 max 1840 min
Histogram: 3 1 2 1 2 2 3 0 0 2
Neighs:    0 ave 0 max 0 min
Histogram: 16 0 0 0 0 0 0 0 0 0
FullNghs:  18960.4 ave 20564 max 17261 min
Histogram: 1 2 0 2 3 2 2 1 2 1

Total # of neighbors = 303366
Ave neighs/atom = 303.366
Neighbor list builds = 1000
Dangerous builds not checked
Setting up Verlet run ...
  Unit style    : real
  Current step  : 18000
  Time step     : 1
Per MPI rank memory allocation (min/avg/max) = 4.577 | 4.578 | 4.579 Mbytes
Step Temp E_pair E_mol TotEng Press Volume Lx Ly Lz S/CPU 
   18000    300.92958   -10531.378            0   -9635.2611    8419.1298    777.71336      9.19616      9.19616      9.19616            0 
   18100    296.23834   -10517.436            0   -9635.2888    2835.2474     778.1591    9.1979166    9.1979166    9.1979166    58.362535 
   18200    301.76285    -10534.67            0   -9636.0713    1962.9312    779.63314    9.2037207    9.2037207    9.2037207     49.80299 
   18300    291.62674   -10503.165            0   -9634.7503   -1183.8487    781.37271    9.2105609    9.2105609    9.2105609    53.788853 
   18400    310.65939   -10558.718            0    -9633.627   -17948.804     782.8454    9.2163438    9.2163438    9.2163438    45.760693 
   18500     299.7372     -10523.5            0   -9630.9336    1755.0729    783.50679    9.2189386    9.2189386    9.2189386    55.256118 
   18600    305.14724   -10537.161            0   -9628.4847   -6546.6976    783.90866    9.2205145    9.2205145    9.2205145    54.615057 
   18700     299.4449   -10515.632            0   -9623.9359   -2824.1168    783.96299    9.2207275    9.2207275    9.2207275    43.195457 
   18800    303.49317   -10523.762            0   -9620.0111      2436.56    783.90015    9.2204811    9.2204811    9.2204811    50.481639 
   18900    298.55911   -10503.163            0   -9614.1053    7236.7387    783.97337    9.2207682    9.2207682    9.2207682     46.25482 
   19000    295.95872    -10488.43            0   -9607.1157    9022.5846    784.24664    9.2218394    9.2218394    9.2218394    45.405368 
Loop time of 20.0668 on 16 procs for 1000 steps with 1000 atoms

Performance: 4.306 ns/day, 5.574 hours/ns, 49.834 timesteps/s
94.8% CPU use with 16 MPI tasks x no OpenMP threads

MPI task timing breakdown:
Section |  min time  |  avg time  |  max time  |%varavg| %total
---------------------------------------------------------------
Pair    | 1.8001     | 1.9803     | 2.6771     |  13.7 |  9.87
Neigh   | 0.63182    | 0.68211    | 0.86867    |   6.4 |  3.40
Comm    | 0.54945    | 1.4327     | 1.651      |  20.4 |  7.14
Output  | 10.791     | 11.115     | 15.936     |  37.3 | 55.39
Modify  | 0.026479   | 4.8487     | 5.1736     |  56.5 | 24.16
Other   |            | 0.007491   |            |       |  0.04

Nlocal:    62.5 ave 68 max 57 min
Histogram: 1 3 2 2 0 2 1 0 3 2
Nghost:    1863.75 ave 1884 max 1845 min
Histogram: 2 1 1 3 0 2 4 1 1 1
Neighs:    0 ave 0 max 0 min
Histogram: 16 0 0 0 0 0 0 0 0 0
FullNghs:  18815.1 ave 20561 max 16941 min
Histogram: 1 0 3 3 1 2 1 1 2 2

Total # of neighbors = 301042
Ave neighs/atom = 301.042
Neighbor list builds = 1000
Dangerous builds not checked
Setting up Verlet run ...
  Unit style    : real
  Current step  : 19000
  Time step     : 1
Per MPI rank memory allocation (min/avg/max) = 4.577 | 4.578 | 4.579 Mbytes
Step Temp E_pair E_mol TotEng Press Volume Lx Ly Lz S/CPU 
   19000    295.95872    -10488.43            0   -9607.1157    9022.5846    784.24664    9.2218394    9.2218394    9.2218394            0 
   19100    289.32926   -10459.803            0   -9598.2295   -2216.1771    784.53325    9.2229627    9.2229627    9.2229627    55.151907 
   19200    285.35432   -10436.764            0   -9587.0278    7811.4648    785.08199    9.2251125    9.2251125    9.2251125    48.900438 
   19300    302.11045   -10474.674            0    -9575.041    2301.3387    785.88057    9.2282394    9.2282394    9.2282394     48.87313 
   19400    297.68972   -10450.823            0   -9564.3543    4534.9804    786.65647    9.2312754    9.2312754    9.2312754    53.871555 
   19500    306.94527   -10470.822            0   -9556.7917    1559.8625    787.26712    9.2336634    9.2336634    9.2336634    41.850924 
   19600    312.63852   -10482.863            0   -9551.8792    1908.9315     787.7557    9.2355731    9.2355731    9.2355731    52.248068 
   19700    296.84088   -10431.771            0   -9547.8298    4606.7879    788.62421     9.238966     9.238966     9.238966    59.678212 
   19800    311.79794   -10475.041            0   -9546.5604   -14498.804     789.4617    9.2422353    9.2422353    9.2422353    41.476791 
   19900    303.97165   -10449.964            0   -9544.7884   -17043.239    789.53806    9.2425333    9.2425333    9.2425333    53.450634 
   20000    313.78506   -10479.154            0   -9544.7558    4559.2056    788.88657    9.2399904    9.2399904    9.2399904    51.422732 
Loop time of 19.9661 on 16 procs for 1000 steps with 1000 atoms

Performance: 4.327 ns/day, 5.546 hours/ns, 50.085 timesteps/s
94.8% CPU use with 16 MPI tasks x no OpenMP threads

MPI task timing breakdown:
Section |  min time  |  avg time  |  max time  |%varavg| %total
---------------------------------------------------------------
Pair    | 1.8294     | 1.9681     | 2.7333     |  14.6 |  9.86
Neigh   | 0.64385    | 0.68338    | 0.89657    |   6.9 |  3.42
Comm    | 0.46224    | 1.4405     | 1.6057     |  21.7 |  7.21
Output  | 10.448     | 10.788     | 15.835     |  39.7 | 54.03
Modify  | 0.029952   | 5.079      | 5.4192     |  57.8 | 25.44
Other   |            | 0.007481   |            |       |  0.04

Nlocal:    62.5 ave 68 max 58 min
Histogram: 1 1 2 2 3 1 3 1 0 2
Nghost:    1847.31 ave 1882 max 1816 min
Histogram: 1 1 2 1 4 2 1 3 0 1
Neighs:    0 ave 0 max 0 min
Histogram: 16 0 0 0 0 0 0 0 0 0
FullNghs:  18721.9 ave 20484 max 17398 min
Histogram: 2 1 3 3 1 2 2 0 0 2

Total # of neighbors = 299550
Ave neighs/atom = 299.55
Neighbor list builds = 1000
Dangerous builds not checked
Setting up Verlet run ...
  Unit style    : real
  Current step  : 20000
  Time step     : 1
Per MPI rank memory allocation (min/avg/max) = 4.577 | 4.578 | 4.579 Mbytes
Step Temp E_pair E_mol TotEng Press Volume Lx Ly Lz S/CPU 
   20000    313.78506   -10479.154            0   -9544.7558    4559.2056    788.88657    9.2399904    9.2399904    9.2399904            0 
   20100     306.6709   -10458.575            0   -9545.3614     -12710.5    788.00925    9.2365639    9.2365639    9.2365639    42.969229 
   20200     308.9169   -10469.539            0   -9549.6369   -633.07333    786.75872    9.2316753    9.2316753    9.2316753    44.770176 
   20300    295.71726   -10433.389            0   -9552.7936   -9307.8673    785.18171    9.2255031    9.2255031    9.2255031     49.49954 
   20400    306.53844   -10473.422            0   -9560.6033    18962.783    783.19302    9.2177078    9.2177078    9.2177078    55.474069 
   20500    294.44208   -10446.023            0   -9569.2244    6586.2197    781.67669    9.2117552    9.2117552    9.2117552    48.548207 
   20600    307.49552   -10497.603            0   -9581.9335   -764.40214    780.51929    9.2072064    9.2072064    9.2072064    47.725809 
   20700    305.60168   -10506.913            0   -9596.8832    -6168.625    779.48765    9.2031482    9.2031482    9.2031482    45.550807 
   20800    301.17809   -10508.188            0    -9611.331    4588.5917    778.71026    9.2000877    9.2000877    9.2000877    53.569493 
   20900    290.02407   -10487.865            0   -9624.2229   -208.98919    778.60629    9.1996782    9.1996782    9.1996782    41.494093 
   21000    302.19737   -10534.317            0   -9634.4252    2692.5382    778.88728    9.2007848    9.2007848    9.2007848    53.978916 
Loop time of 20.8635 on 16 procs for 1000 steps with 1000 atoms

Performance: 4.141 ns/day, 5.795 hours/ns, 47.931 timesteps/s
94.7% CPU use with 16 MPI tasks x no OpenMP threads

MPI task timing breakdown:
Section |  min time  |  avg time  |  max time  |%varavg| %total
---------------------------------------------------------------
Pair    | 1.8243     | 1.9833     | 2.6152     |  12.9 |  9.51
Neigh   | 0.63215    | 0.68291    | 0.87459    |   6.7 |  3.27
Comm    | 0.58785    | 1.4119     | 1.6215     |  19.9 |  6.77
Output  | 11.296     | 11.64      | 16.751     |  38.7 | 55.79
Modify  | 0.026172   | 5.1376     | 5.4816     |  58.2 | 24.62
Other   |            | 0.007504   |            |       |  0.04

Nlocal:    62.5 ave 71 max 57 min
Histogram: 3 1 4 0 3 1 2 1 0 1
Nghost:    1865.06 ave 1880 max 1848 min
Histogram: 1 2 3 1 2 0 0 0 3 4
Neighs:    0 ave 0 max 0 min
Histogram: 16 0 0 0 0 0 0 0 0 0
FullNghs:  18957.2 ave 21784 max 17028 min
Histogram: 2 1 3 3 2 1 2 1 0 1

Total # of neighbors = 303316
Ave neighs/atom = 303.316
Neighbor list builds = 1000
Dangerous builds not checked
Setting up Verlet run ...
  Unit style    : real
  Current step  : 21000
  Time step     : 1
Per MPI rank memory allocation (min/avg/max) = 4.577 | 4.578 | 4.579 Mbytes
Step Temp E_pair E_mol TotEng Press Volume Lx Ly Lz S/CPU 
   21000    302.19737   -10534.317            0   -9634.4252    2692.5382    778.88728    9.2007848    9.2007848    9.2007848            0 
   21100     295.0521   -10517.704            0   -9639.0888   -9936.4492    779.80012    9.2043777    9.2043777    9.2043777    56.497206 
   21200    296.82849   -10525.427            0   -9641.5224   -5161.0278    780.87806    9.2086169    9.2086169    9.2086169    40.230662 
   21300    302.57477   -10544.557            0   -9643.5408   -945.75484    781.85464    9.2124541    9.2124541    9.2124541    56.087802 
   21400    287.15154   -10498.651            0   -9643.5623   -2622.9671    782.82438    9.2162613    9.2162613    9.2162613    49.611358 
   21500    300.16303   -10537.037            0   -9643.2027   -420.98482    783.74597    9.2198766    9.2198766    9.2198766    52.286342 
   21600    293.23485   -10514.314            0   -9641.1108   -6047.0009    784.29023    9.2220103    9.2220103    9.2220103    56.985878 
   21700    294.60176   -10516.486            0   -9639.2127    720.21773    784.92844     9.224511     9.224511     9.224511    51.843888 
   21800    302.51902   -10537.318            0   -9636.4675   -3987.0031     785.4646    9.2266109    9.2266109    9.2266109    55.464125 
   21900    299.99524   -10525.853            0   -9632.5179   -4619.2144    785.76688    9.2277943    9.2277943    9.2277943    57.454653 
   22000    285.06948   -10476.109            0   -9627.2206   -2681.3058    785.56122    9.2269892    9.2269892    9.2269892    42.696628 
Loop time of 19.5361 on 16 procs for 1000 steps with 1000 atoms

Performance: 4.423 ns/day, 5.427 hours/ns, 51.187 timesteps/s
94.8% CPU use with 16 MPI tasks x no OpenMP threads

MPI task timing breakdown:
Section |  min time  |  avg time  |  max time  |%varavg| %total
---------------------------------------------------------------
Pair    | 1.8197     | 1.9684     | 2.6174     |  12.7 | 10.08
Neigh   | 0.62923    | 0.67985    | 0.87117    |   6.6 |  3.48
Comm    | 0.54083    | 1.3816     | 1.5806     |  19.7 |  7.07
Output  | 10.634     | 10.94      | 15.47      |  35.4 | 56.00
Modify  | 0.027579   | 4.5592     | 4.8649     |  54.8 | 23.34
Other   |            | 0.007482   |            |       |  0.04

Nlocal:    62.5 ave 67 max 57 min
Histogram: 1 1 1 2 1 2 1 1 3 3
Nghost:    1853.75 ave 1868 max 1840 min
Histogram: 1 1 3 2 0 4 0 2 2 1
Neighs:    0 ave 0 max 0 min
Histogram: 16 0 0 0 0 0 0 0 0 0
FullNghs:  18794.9 ave 20338 max 17314 min
Histogram: 2 1 2 2 1 1 1 4 1 1

Total # of neighbors = 300718
Ave neighs/atom = 300.718
Neighbor list builds = 1000
Dangerous builds not checked
Setting up Verlet run ...
  Unit style    : real
  Current step  : 22000
  Time step     : 1
Per MPI rank memory allocation (min/avg/max) = 4.577 | 4.578 | 4.579 Mbytes
Step Temp E_pair E_mol TotEng Press Volume Lx Ly Lz S/CPU 
   22000    285.06948   -10476.109            0   -9627.2206   -2681.3058    785.56122    9.2269892    9.2269892    9.2269892            0 
   22100     292.7079   -10495.079            0   -9623.4451     9751.532    784.66464    9.2234775    9.2234775    9.2234775    57.498336 
   22200    301.80119   -10515.831            0   -9617.1185    2997.9482    783.51968    9.2189891    9.2189891    9.2189891    56.678968 
   22300     296.3564   -10491.619            0   -9609.1201   -7912.6747    782.05067     9.213224     9.213224     9.213224    48.688678 
   22400    299.96472   -10495.965            0   -9602.7214    7093.0966    780.20775    9.2059812    9.2059812    9.2059812    52.741585 
   22500     307.3311   -10510.524            0   -9595.3447    5091.8818    778.49302     9.199232     9.199232     9.199232    55.460275 
   22600     310.0839   -10512.507            0   -9589.1305    3712.1707    777.57534     9.195616     9.195616     9.195616    49.897702 
   22700    299.53489   -10475.766            0   -9583.8027    10234.366    777.47842    9.1952339    9.1952339    9.1952339    58.200318 
   22800    302.33712   -10478.834            0   -9578.5258    14454.894    778.34819    9.1986615    9.1986615    9.1986615    59.779196 
   22900    309.07435   -10493.206            0   -9572.8349    20785.298    780.75142    9.2081191    9.2081191    9.2081191    53.022892 
   23000     307.5183   -10485.972            0   -9570.2354    15451.768    784.57091    9.2231102    9.2231102    9.2231102    51.848626 
Loop time of 18.4663 on 16 procs for 1000 steps with 1000 atoms

Performance: 4.679 ns/day, 5.130 hours/ns, 54.153 timesteps/s
94.9% CPU use with 16 MPI tasks x no OpenMP threads

MPI task timing breakdown:
Section |  min time  |  avg time  |  max time  |%varavg| %total
---------------------------------------------------------------
Pair    | 1.8549     | 1.9982     | 2.6548     |  13.0 | 10.82
Neigh   | 0.63901    | 0.68525    | 0.87348    |   6.5 |  3.71
Comm    | 0.57939    | 1.4243     | 1.6143     |  19.8 |  7.71
Output  | 9.5188     | 9.8223     | 14.324     |  37.1 | 53.19
Modify  | 0.026023   | 4.5287     | 4.8325     |  54.6 | 24.52
Other   |            | 0.007494   |            |       |  0.04

Nlocal:    62.5 ave 69 max 57 min
Histogram: 3 0 2 1 2 4 0 2 1 1
Nghost:    1854.44 ave 1868 max 1840 min
Histogram: 2 1 0 1 1 5 2 2 1 1
Neighs:    0 ave 0 max 0 min
Histogram: 16 0 0 0 0 0 0 0 0 0
FullNghs:  18804.1 ave 20845 max 17156 min
Histogram: 2 1 3 2 2 1 1 2 1 1

Total # of neighbors = 300866
Ave neighs/atom = 300.866
Neighbor list builds = 1000
Dangerous builds not checked
Setting up Verlet run ...
  Unit style    : real
  Current step  : 23000
  Time step     : 1
Per MPI rank memory allocation (min/avg/max) = 4.577 | 4.578 | 4.579 Mbytes
Step Temp E_pair E_mol TotEng Press Volume Lx Ly Lz S/CPU 
   23000     307.5183   -10485.972            0   -9570.2354    15451.768    784.57091    9.2231102    9.2231102    9.2231102            0 
   23100     315.4661    -10506.47            0   -9567.0659   -6507.0208    789.33069     9.241724     9.241724     9.241724      61.8608 
   23200    300.67392   -10459.705            0   -9564.3491    4796.3904    793.74052    9.2589026    9.2589026    9.2589026    47.775908 
   23300    307.79971   -10480.031            0   -9563.4558   -16144.857    797.39946    9.2731079    9.2731079    9.2731079    42.970966 
   23400    309.23804   -10482.444            0    -9561.586   -19326.319    799.60171    9.2816368    9.2816368    9.2816368    47.359069 
   23500    303.02609   -10463.529            0   -9561.1694   -32212.207    799.95214    9.2829925    9.2829925    9.2829925    44.991362 
   23600    303.78265   -10466.983            0   -9562.3699   -21255.515    798.60999     9.277798     9.277798     9.277798    56.336211 
   23700    310.36487   -10487.142            0   -9562.9279   -6717.8113    796.48892    9.2695769    9.2695769    9.2695769    40.380372 
   23800    303.12296   -10465.062            0   -9562.4137    586.01634    793.97386    9.2598098    9.2598098    9.2598098    50.920886 
   23900    299.32114    -10455.31            0   -9563.9826   -13555.857    791.52917    9.2502963    9.2502963    9.2502963    57.174884 
   24000    311.95433   -10496.162            0   -9567.2151   -10962.563     788.7469    9.2394451    9.2394451    9.2394451    43.884448 
Loop time of 20.6141 on 16 procs for 1000 steps with 1000 atoms

Performance: 4.191 ns/day, 5.726 hours/ns, 48.511 timesteps/s
94.7% CPU use with 16 MPI tasks x no OpenMP threads

MPI task timing breakdown:
Section |  min time  |  avg time  |  max time  |%varavg| %total
---------------------------------------------------------------
Pair    | 1.7492     | 1.9192     | 2.4836     |  11.5 |  9.31
Neigh   | 0.62877    | 0.67871    | 0.85787    |   6.2 |  3.29
Comm    | 0.60958    | 1.3535     | 1.5736     |  18.0 |  6.57
Output  | 10.65      | 11.027     | 16.627     |  43.5 | 53.49
Modify  | 0.026926   | 5.6282     | 6.0056     |  61.0 | 27.30
Other   |            | 0.007413   |            |       |  0.04

Nlocal:    62.5 ave 70 max 56 min
Histogram: 2 0 3 3 0 2 2 3 0 1
Nghost:    1850 ave 1870 max 1833 min
Histogram: 1 0 2 3 5 2 0 1 1 1
Neighs:    0 ave 0 max 0 min
Histogram: 16 0 0 0 0 0 0 0 0 0
FullNghs:  18710.9 ave 20950 max 16703 min
Histogram: 2 0 2 4 1 1 2 3 0 1

Total # of neighbors = 299374
Ave neighs/atom = 299.374
Neighbor list builds = 1000
Dangerous builds not checked
Setting up Verlet run ...
  Unit style    : real
  Current step  : 24000
  Time step     : 1
Per MPI rank memory allocation (min/avg/max) = 4.577 | 4.578 | 4.579 Mbytes
Step Temp E_pair E_mol TotEng Press Volume Lx Ly Lz S/CPU 
   24000    311.95433   -10496.162            0   -9567.2151   -10962.563     788.7469    9.2394451    9.2394451    9.2394451            0 
   24100    287.90042   -10426.344            0   -9569.0258    16537.483    785.68097     9.227458     9.227458     9.227458    56.793403 
   24200    300.60181   -10468.799            0   -9573.6579    10700.616    783.05603    9.2171703    9.2171703    9.2171703    51.579272 
   24300    309.25084   -10500.383            0   -9579.4869    12018.968    780.93204    9.2088291    9.2088291    9.2088291    43.300991 
   24400    298.85357    -10475.22            0   -9585.2856    4277.4583    779.93505    9.2049086    9.2049086    9.2049086    56.085586 
   24500    301.37419   -10492.274            0   -9594.8335    13881.899    779.86736    9.2046423    9.2046423    9.2046423    50.874057 
   24600    298.16184   -10492.378            0   -9604.5032    9974.1996    780.44629    9.2069194    9.2069194    9.2069194    54.216463 
   24700    292.65678   -10486.472            0   -9614.9902    1340.4601    781.72974    9.2119636    9.2119636    9.2119636    52.227696 
   24800    297.08784   -10509.432            0   -9624.7554   -4557.3197    783.21536    9.2177954    9.2177954    9.2177954    49.102089 
   24900    296.53477   -10515.415            0   -9632.3854   -6053.1651    784.56465    9.2230857    9.2230857    9.2230857    60.566516 
   25000    287.50694     -10494.5            0   -9638.3538   -11633.219      785.639    9.2272937    9.2272937    9.2272937    59.104299 
Loop time of 18.8963 on 16 procs for 1000 steps with 1000 atoms

Performance: 4.572 ns/day, 5.249 hours/ns, 52.920 timesteps/s
94.9% CPU use with 16 MPI tasks x no OpenMP threads

MPI task timing breakdown:
Section |  min time  |  avg time  |  max time  |%varavg| %total
---------------------------------------------------------------
Pair    | 1.8444     | 1.9714     | 2.7278     |  14.3 | 10.43
Neigh   | 0.64739    | 0.67974    | 0.89303    |   6.9 |  3.60
Comm    | 0.44499    | 1.4144     | 1.5527     |  21.5 |  7.49
Output  | 10.002     | 10.305     | 14.796     |  36.1 | 54.54
Modify  | 0.025391   | 4.5182     | 4.8216     |  54.6 | 23.91
Other   |            | 0.007471   |            |       |  0.04

Nlocal:    62.5 ave 67 max 59 min
Histogram: 2 1 2 3 0 3 2 2 0 1
Nghost:    1854.56 ave 1865 max 1846 min
Histogram: 2 2 3 1 1 1 2 1 2 1
Neighs:    0 ave 0 max 0 min
Histogram: 16 0 0 0 0 0 0 0 0 0
FullNghs:  18772.9 ave 20045 max 17652 min
Histogram: 3 0 1 4 0 2 3 1 1 1

Total # of neighbors = 300366
Ave neighs/atom = 300.366
Neighbor list builds = 1000
Dangerous builds not checked
Setting up Verlet run ...
  Unit style    : real
  Current step  : 25000
  Time step     : 1
Per MPI rank memory allocation (min/avg/max) = 4.577 | 4.578 | 4.579 Mbytes
Step Temp E_pair E_mol TotEng Press Volume Lx Ly Lz S/CPU 
   25000    287.50694     -10494.5            0   -9638.3538   -11633.219      785.639    9.2272937    9.2272937    9.2272937            0 
   25100    295.48356    -10523.63            0   -9643.7309   -13460.043    786.51552     9.230724     9.230724     9.230724    46.873424 
   25200    290.49413   -10511.196            0   -9646.1542     598.6192    787.02123    9.2327019    9.2327019    9.2327019    58.625799 
   25300    284.86166   -10496.834            0   -9648.5642   -11316.627    787.25753    9.2336259    9.2336259    9.2336259    53.169182 
   25400    294.77856   -10526.653            0   -9648.8531   -10233.277    786.92155    9.2323121    9.2323121    9.2323121    50.198434 
   25500    300.51286   -10543.462            0   -9648.5858   -11465.915    785.97524    9.2286099    9.2286099    9.2286099    47.696832 
   25600    297.45739   -10532.284            0   -9646.5069    7114.8516    784.73154    9.2237397    9.2237397    9.2237397    56.987677 
   25700    293.66937   -10516.545            0   -9642.0476   -466.82017     783.9763    9.2207797    9.2207797    9.2207797    42.332507 
   25800    297.82684   -10524.267            0   -9637.3899    7171.1268    783.67886    9.2196134    9.2196134    9.2196134     60.58542 
   25900     296.6071   -10513.179            0   -9629.9334   -4110.0406    783.95747    9.2207059    9.2207059    9.2207059    55.761267 
   26000    300.69647   -10514.465            0   -9619.0418    4152.8143    784.32182    9.2221341    9.2221341    9.2221341    50.687864 
Loop time of 19.3424 on 16 procs for 1000 steps with 1000 atoms

Performance: 4.467 ns/day, 5.373 hours/ns, 51.700 timesteps/s
94.8% CPU use with 16 MPI tasks x no OpenMP threads

MPI task timing breakdown:
Section |  min time  |  avg time  |  max time  |%varavg| %total
---------------------------------------------------------------
Pair    | 1.8545     | 1.9528     | 2.5148     |  10.8 | 10.10
Neigh   | 0.64566    | 0.67926    | 0.84643    |   5.5 |  3.51
Comm    | 0.6355     | 1.3649     | 1.4858     |  16.5 |  7.06
Output  | 10.614     | 10.911     | 15.311     |  34.4 | 56.41
Modify  | 0.026137   | 4.4269     | 4.7238     |  54.0 | 22.89
Other   |            | 0.007501   |            |       |  0.04

Nlocal:    62.5 ave 68 max 56 min
Histogram: 1 0 1 0 4 5 2 0 1 2
Nghost:    1860.62 ave 1874 max 1845 min
Histogram: 4 0 0 0 1 1 6 1 1 2
Neighs:    0 ave 0 max 0 min
Histogram: 16 0 0 0 0 0 0 0 0 0
FullNghs:  18821.4 ave 20522 max 16850 min
Histogram: 1 0 1 1 6 1 3 0 2 1

Total # of neighbors = 301142
Ave neighs/atom = 301.142
Neighbor list builds = 1000
Dangerous builds not checked
Setting up Verlet run ...
  Unit style    : real
  Current step  : 26000
  Time step     : 1
Per MPI rank memory allocation (min/avg/max) = 4.577 | 4.578 | 4.579 Mbytes
Step Temp E_pair E_mol TotEng Press Volume Lx Ly Lz S/CPU 
   26000    300.69647   -10514.465            0   -9619.0418    4152.8143    784.32182    9.2221341    9.2221341    9.2221341            0 
   26100    304.91156   -10513.413            0   -9605.4388    8494.9148    784.92646    9.2245033    9.2245033    9.2245033    45.037209 
   26200    308.94194   -10511.671            0    -9591.695    7846.5662    785.83904    9.2280768    9.2280768    9.2280768     55.52282 
   26300    300.49609    -10473.49            0   -9578.6641    3313.3279    786.94454     9.232402     9.232402     9.232402    51.384825 
   26400    304.85386   -10475.795            0   -9567.9927    1689.4803       788.11    9.2369575    9.2369575    9.2369575    53.502323 
   26500    307.15826   -10476.259            0   -9561.5945   -6679.1341     789.0431    9.2406015    9.2406015    9.2406015    58.746807 
   26600    298.70185   -10446.427            0   -9556.9444    -7317.417    789.62506    9.2428727    9.2428727    9.2428727    60.783059 
   26700    293.92984   -10429.855            0   -9554.5824   -2545.3864     789.9375    9.2440917    9.2440917    9.2440917     50.87547 
   26800    302.00128   -10453.285            0   -9553.9765   -8365.7713    790.04806    9.2445229    9.2445229    9.2445229    56.066583 
   26900    299.56921   -10446.706            0   -9554.6401   -2817.3357    789.85912    9.2437859    9.2437859    9.2437859    53.980403 
   27000    296.82584   -10441.533            0   -9557.6366   -1248.5789    789.13486    9.2409597    9.2409597    9.2409597    41.325004 
Loop time of 19.2056 on 16 procs for 1000 steps with 1000 atoms

Performance: 4.499 ns/day, 5.335 hours/ns, 52.068 timesteps/s
94.8% CPU use with 16 MPI tasks x no OpenMP threads

MPI task timing breakdown:
Section |  min time  |  avg time  |  max time  |%varavg| %total
---------------------------------------------------------------
Pair    | 1.8046     | 1.9457     | 2.5078     |  11.3 | 10.13
Neigh   | 0.63459    | 0.67836    | 0.83691    |   5.8 |  3.53
Comm    | 0.67679    | 1.3973     | 1.5818     |  17.2 |  7.28
Output  | 10.248     | 10.558     | 15.144     |  36.4 | 54.97
Modify  | 0.030936   | 4.6192     | 4.9287     |  55.1 | 24.05
Other   |            | 0.00747    |            |       |  0.04

Nlocal:    62.5 ave 71 max 54 min
Histogram: 1 0 1 2 5 4 0 2 0 1
Nghost:    1847.56 ave 1877 max 1817 min
Histogram: 2 1 1 1 3 1 2 2 2 1
Neighs:    0 ave 0 max 0 min
Histogram: 16 0 0 0 0 0 0 0 0 0
FullNghs:  18710.2 ave 21476 max 16205 min
Histogram: 1 0 2 2 5 3 0 2 0 1

Total # of neighbors = 299364
Ave neighs/atom = 299.364
Neighbor list builds = 1000
Dangerous builds not checked
Setting up Verlet run ...
  Unit style    : real
  Current step  : 27000
  Time step     : 1
Per MPI rank memory allocation (min/avg/max) = 4.577 | 4.578 | 4.579 Mbytes
Step Temp E_pair E_mol TotEng Press Volume Lx Ly Lz S/CPU 
   27000    296.82584   -10441.533            0   -9557.6366   -1248.5789    789.13486    9.2409597    9.2409597    9.2409597            0 
   27100    297.97755   -10447.794            0   -9560.4675   -2567.3595    787.61262    9.2350139    9.2350139    9.2350139    59.222532 
   27200    313.30292   -10497.456            0   -9564.4931    9724.1371    785.95087    9.2285145    9.2285145    9.2285145    52.655798 
   27300     305.4147   -10476.441            0   -9566.9686   -282.47155     784.7951    9.2239887    9.2239887    9.2239887    44.451983 
   27400    300.62023   -10466.046            0   -9570.8504    2198.6799    784.01917    9.2209478    9.2209478    9.2209478    56.737675 
   27500    314.51762   -10513.118            0   -9576.5386    12998.521    783.28516    9.2180693    9.2180693    9.2180693    53.452262 
   27600    306.65038   -10495.205            0   -9582.0528    1155.8549    782.93822    9.2167081    9.2167081    9.2167081    50.975861 
   27700    316.30523   -10532.159            0   -9590.2565   -5058.9273    782.82084    9.2162474    9.2162474    9.2162474    52.037843 
   27800      296.621   -10480.801            0   -9597.5145    2027.4402    782.91557    9.2166192    9.2166192    9.2166192    57.724914 
   27900    299.81761     -10498.2            0   -9605.3944    11545.328    783.15982    9.2175775    9.2175775    9.2175775    42.992452 
   28000    293.30738   -10484.123            0   -9610.7035   -5113.7752    783.66796    9.2195707    9.2195707    9.2195707    54.096521 
Loop time of 19.2609 on 16 procs for 1000 steps with 1000 atoms

[...]
  148700    298.66976   -11576.216            0   -10686.829    2140.5164    724.62874    8.9819752    8.9819752    8.9819752     42.49695 
  148800    299.90979   -11582.944            0   -10689.863    2814.0272    724.53572    8.9815909    8.9815909    8.9815909    58.711818 
  148900    298.83155   -11582.204            0   -10692.334    525.33356    724.62466    8.9819584    8.9819584    8.9819584    46.676588 
  149000    293.34221   -11567.604            0   -10694.081   -6113.0236    724.63638    8.9820068    8.9820068    8.9820068    56.573226 
  149100    290.47158   -11561.062            0   -10696.087   -1167.9721    724.51881     8.981521     8.981521     8.981521    50.811916 
  149200    294.10222   -11575.705            0   -10699.919   -1175.1638    724.41233     8.981081     8.981081     8.981081    47.745457 
  149300     292.1266   -11569.957            0   -10700.054   -1334.6677    724.27462    8.9805118    8.9805118    8.9805118    63.189411 
  149400    300.59674   -11595.444            0   -10700.319    3696.8327    724.29339    8.9805894    8.9805894    8.9805894    54.789977 
  149500    297.20867   -11584.278            0   -10699.241   -524.69315    724.54726    8.9816385    8.9816385    8.9816385    41.138881 
  149600    287.28428   -11549.014            0   -10693.531   -3410.1774    724.86007    8.9829309    8.9829309    8.9829309    65.912304 
  149700    288.86345   -11547.785            0   -10687.599    1397.1179    725.07252    8.9838084    8.9838084    8.9838084    48.457471 
  149800    287.65716   -11535.879            0   -10679.285    1813.5693    725.25205    8.9845498    8.9845498    8.9845498    38.628187 
  149900    302.11105   -11570.169            0   -10670.533    28.809111    725.39244    8.9851295    8.9851295    8.9851295    60.359242 
  150000     299.8801     -11552.8            0   -10659.808   -1798.9018    725.31481     8.984809     8.984809     8.984809    55.457705 
  150100    304.78719   -11557.352            0   -10649.748    1495.1768    725.08119    8.9838442    8.9838442    8.9838442    36.943647 
  150200    301.01686   -11536.299            0   -10639.923    7096.6226    724.99885    8.9835041    8.9835041    8.9835041     58.49143 
  150300    297.26992   -11515.749            0    -10630.53    1566.3315    725.24907    8.9845375    8.9845375    8.9845375     44.03769 
  150400    310.55892   -11550.263            0   -10625.471    4820.5065      725.633    8.9861227    8.9861227    8.9861227    48.175888 
  150500    310.93149   -11545.365            0   -10619.464   -6032.6395    726.14693    8.9882436    8.9882436    8.9882436    44.479114 
  150600    297.47716   -11500.125            0   -10614.288   -7829.4956    726.44067    8.9894554    8.9894554    8.9894554    51.476053 
  150700    313.06822   -11543.979            0   -10611.715    8925.1781    726.46421    8.9895525    8.9895525    8.9895525     56.52475 
  150800    310.77929   -11533.775            0   -10608.327    1862.6814    726.51965    8.9897812    8.9897812    8.9897812    57.269645 
  150900    308.10178   -11524.762            0   -10607.288    -6107.254    726.51422    8.9897588    8.9897588    8.9897588    51.822925 
  151000    320.75966   -11562.535            0   -10607.368    2856.1132     726.4258    8.9893941    8.9893941    8.9893941    61.761423 
  151100    307.58172   -11524.341            0   -10608.415    4326.5185    726.29003     8.988834     8.988834     8.988834    65.596118 
  151200    315.22313   -11551.527            0   -10612.846   -3679.9852    726.08389    8.9879835    8.9879835    8.9879835    43.354312 
  151300     296.5552   -11500.231            0   -10617.141     3689.081    725.69816    8.9863916    8.9863916    8.9863916    64.303679 
  151400     291.7524    -11494.73            0   -10625.941    4153.4721    725.09573    8.9839043    8.9839043    8.9839043    59.765678 
  151500    307.78004   -11557.303            0   -10640.787    10818.338    724.48118    8.9813655    8.9813655    8.9813655     33.18641 
  151600      310.105   -11579.859            0    -10656.42    4125.8666    724.14209     8.979964     8.979964     8.979964    53.898852 
  151700    304.49401   -11578.791            0    -10672.06   -3713.1593    723.99644    8.9793619    8.9793619    8.9793619     61.32023 
  151800    284.24462   -11529.439            0   -10683.008    1486.9084    723.89929    8.9789603    8.9789603    8.9789603    29.732135 
  151900    302.74037   -11593.384            0   -10691.875   -4379.8613    723.82374    8.9786479    8.9786479    8.9786479    53.214145 
  152000    296.69156   -11579.626            0   -10696.129    11891.686    723.74409    8.9783186    8.9783186    8.9783186    61.504383 
  152100    294.38533   -11574.192            0   -10697.563   -5255.0616    723.81483     8.978611     8.978611     8.978611    35.341803 
  152200    291.11512   -11564.748            0   -10697.857     5179.479    724.01188    8.9794258    8.9794258    8.9794258    59.183165 
  152300    297.87269    -11583.88            0   -10696.866    2798.6863    724.24943    8.9804077    8.9804077    8.9804077    55.722426 
  152400    297.94158   -11582.344            0   -10695.124   -5391.8076    724.62383    8.9819549    8.9819549    8.9819549     31.59789 
  152500    287.16186   -11545.946            0   -10690.827   -7962.3219    725.03988    8.9836736    8.9836736    8.9836736    56.682542 
  152600    305.36254   -11598.461            0   -10689.144    12212.829    725.40941    8.9851996    8.9851996    8.9851996    55.565388 
  152700    289.67986   -11545.384            0   -10682.767   -1070.8046    725.62699    8.9860978    8.9860978    8.9860978    19.720438 
  152800    289.59647   -11539.601            0   -10677.232   -11839.637    725.47514     8.985471     8.985471     8.985471    52.324077 
  152900    300.73725   -11568.809            0   -10673.265   -3909.4537    724.96523    8.9833653    8.9833653    8.9833653     35.82603 
  153000    293.30457   -11539.071            0    -10665.66   -5270.8254    724.30656    8.9806438    8.9806438    8.9806438    58.249564 
  153100    298.85974   -11548.819            0   -10658.865    9822.4834    723.77849    8.9784608    8.9784608    8.9784608    42.828533 
  153200    302.70734   -11553.061            0    -10651.65    9397.0829    723.67797    8.9780451    8.9780451    8.9780451    55.657777 
  153300     307.9012   -11561.287            0    -10644.41    3795.7919    724.15784    8.9800291    8.9800291    8.9800291    65.460292 
  153400     306.3478   -11550.201            0   -10637.949    11370.493     725.0547    8.9837348    8.9837348    8.9837348     65.68682 
  153500    304.43216   -11537.419            0   -10630.872    1032.4166    726.14089    8.9882187    8.9882187    8.9882187    53.111768 
  153600    304.26646   -11531.699            0   -10625.646   -12500.501    727.10675    8.9922021    8.9922021    8.9922021    51.790794 
  153700    311.15144   -11545.912            0   -10619.356   -12653.274    727.68498    8.9945851    8.9945851    8.9945851     55.00832 
  153800    314.93241   -11550.797            0   -10612.983    -12450.43    727.89324    8.9954431    8.9954431    8.9954431    43.106236 
  153900    313.80379   -11542.238            0   -10607.784   -531.86065    727.80648    8.9950857    8.9950857    8.9950857    43.624151 
  154000     310.0735     -11525.9            0   -10602.555    1993.1669    727.49079     8.993785     8.993785     8.993785    63.486689 
  154100    305.98217   -11509.208            0   -10598.045    -5553.259    727.00944    8.9918009    8.9918009    8.9918009    53.868808 
  154200    303.49354   -11496.092            0    -10592.34    2645.5524    726.39117    8.9892512    8.9892512    8.9892512    56.065874 
  154300    307.44576   -11502.457            0   -10586.936    5868.4137    725.88074    8.9871452    8.9871452    8.9871452    61.391191 
  154400    305.66313   -11489.997            0   -10579.784   -2844.1565     725.8321    8.9869444    8.9869444    8.9869444    46.514717 
  154500    306.27004   -11483.574            0   -10571.555    11509.419    726.23655    8.9886134    8.9886134    8.9886134     51.60349 
  154600    303.64632   -11468.175            0   -10563.968    1571.7682     727.1573    8.9924105    8.9924105    8.9924105    50.292171 
  154700    313.21165    -11491.63            0    -10558.94   -4898.3672    728.30187    8.9971261    8.9971261    8.9971261    54.986779 
  154800     313.5063   -11488.633            0   -10555.064   -8319.5197    729.21724    9.0008939    9.0008939    9.0008939    47.781433 
  154900    328.20574   -11531.856            0   -10554.516   -14160.336    729.79148    9.0032559    9.0032559    9.0032559    62.094325 
  155000    311.16939   -11481.099            0    -10554.49   -15117.561    729.66791    9.0027478    9.0027478    9.0027478    40.052066 
  155100    301.56678   -11456.729            0   -10558.714   -17758.275    728.80548    8.9991994    8.9991994    8.9991994    54.872934 
  155200    312.07758   -11499.526            0   -10570.212   -4855.8421    727.21023    8.9926286    8.9926286    8.9926286    54.381856 
  155300    306.03104   -11492.588            0    -10581.28    5292.3907      725.561    8.9858254    8.9858254    8.9858254    45.081282 
  155400    305.32914   -11502.668            0    -10593.45    11730.451    724.36922    8.9809028    8.9809028    8.9809028    58.388377 
  155500    309.49586   -11528.725            0   -10607.099    8096.6619    723.77171    8.9784328    8.9784328    8.9784328    37.522298 
  155600    307.08487   -11533.803            0   -10619.356    11722.523    723.83841    8.9787086    8.9787086    8.9787086    47.042521 
  155700    307.19357   -11545.153            0   -10630.383    14847.444    724.50567    8.9814667    8.9814667    8.9814667    51.536519 
  155800    297.30332   -11524.702            0   -10639.384   -1974.7925    725.61107    8.9860321    8.9860321    8.9860321    39.383668 
  155900    296.13925   -11529.022            0    -10647.17   -15144.335    726.75404    8.9907479    8.9907479    8.9907479    52.205114 
  156000    297.43906   -11537.888            0   -10652.166     -9405.09    727.26588     8.992858     8.992858     8.992858    50.848142 
  156100    297.48128   -11542.219            0    -10656.37   -1025.0542    727.14612    8.9923644    8.9923644    8.9923644    52.585132 
  156200    297.47133   -11546.693            0   -10660.874   -8673.2404    726.76526    8.9907941    8.9907941    8.9907941    55.081381 
  156300    297.42813   -11548.569            0   -10662.879     2427.039    726.04819    8.9878362    8.9878362    8.9878362    38.544006 
  156400    300.66328   -11561.149            0   -10665.825    3233.7741    725.18948    8.9842914    8.9842914    8.9842914    46.328293 
  156500    300.44045   -11560.619            0   -10665.959    4912.5576    724.46763    8.9813095    8.9813095    8.9813095    55.810126 
  156600    297.41776   -11551.628            0   -10665.969     21525.19    724.18272     8.980132     8.980132     8.980132    57.203444 
  156700    290.01704   -11527.163            0   -10663.542   -3935.2918    724.52849     8.981561     8.981561     8.981561    34.290198 
  156800    298.90052   -11552.898            0   -10662.824   -1446.2576    724.93017    8.9832204    8.9832204    8.9832204    41.281154 
  156900    294.24416   -11536.298            0   -10660.089    2482.5515    725.28662    8.9846926    8.9846926    8.9846926    63.724899 
  157000    298.42133   -11547.209            0   -10658.562   -10273.355    725.36099    8.9849997    8.9849997    8.9849997    21.961508 
  157100    304.84828   -11564.763            0   -10656.977   -14301.928    724.97793    8.9834178    8.9834178    8.9834178    37.197495 
  157200    294.64836   -11529.371            0   -10651.959    4578.9839    724.13719    8.9799438    8.9799438    8.9799438    16.614962 
  157300    289.04649   -11508.046            0   -10647.315    14690.966    723.57959    8.9776383    8.9776383    8.9776383    43.287743 
  157400    296.38244   -11524.954            0   -10642.378     13243.84    723.65462    8.9779486    8.9779486    8.9779486    64.187712 
  157500    303.39633    -11539.34            0   -10635.878    10966.378    724.41951    8.9811106    8.9811106    8.9811106    67.232155 
  157600    301.14686   -11525.604            0    -10628.84    6255.2509    725.93451    8.9873671    8.9873671    8.9873671     56.16077 
  157700    304.01135   -11525.439            0   -10620.145   -8529.0662    727.77933    8.9949738    8.9949738    8.9949738    59.781432 
  157800    305.83209   -11522.713            0   -10611.997    -7967.822    729.15771     9.000649     9.000649     9.000649    59.745844 
  157900     312.2684   -11533.956            0   -10604.074   -9255.3735    729.80683    9.0033191    9.0033191    9.0033191    49.452697 
  158000    294.53217   -11472.235            0   -10595.169   -4205.7899    729.59912    9.0024648    9.0024648    9.0024648     58.01397 
  158100    298.20618   -11476.957            0    -10588.95    -4585.718    728.94172    8.9997601    8.9997601    8.9997601    61.459447 
  158200    305.70902   -11491.948            0   -10581.599    958.34825    728.30924    8.9971565    8.9971565    8.9971565    47.017845 
  158300    318.10792   -11523.561            0   -10576.289    5045.2845    727.66252    8.9944926    8.9944926    8.9944926    59.900892 
  158400    305.14337   -11480.266            0   -10571.601    12981.715    727.18617    8.9925295    8.9925295    8.9925295    56.647637 
  158500    310.76984   -11494.854            0   -10569.434    7689.5333    727.08936    8.9921304    8.9921304    8.9921304    47.878933 
  158600    312.07287   -11497.727            0   -10568.427   -4114.7271    727.23494    8.9927305    8.9927305    8.9927305    61.014194 
  158700    310.42135   -11493.889            0   -10569.508    16384.445    727.49364    8.9937967    8.9937967    8.9937967    54.347728 
  158800    304.98637   -11480.093            0   -10571.896    5362.9808    728.08456    8.9962312    8.9962312    8.9962312    49.162045 
  158900    305.46122   -11488.488            0   -10578.877    -5917.875    728.71797    8.9988392    8.9988392    8.9988392    62.721181 
  159000    314.66949    -11529.36            0   -10592.328   -9698.2136    728.93347    8.9997262    8.9997262    8.9997262    46.061507 
  159100    300.01648   -11502.257            0   -10608.859   -1140.9456    728.63382    8.9984928    8.9984928    8.9984928    49.429494 
  159200    304.88339   -11535.049            0   -10627.159   -16117.699    727.80807    8.9950923    8.9950923    8.9950923    58.837222 
  159300    302.16764   -11541.674            0    -10641.87   -1110.1644    726.50507    8.9897211    8.9897211    8.9897211    53.330941 
  159400    296.16635   -11534.139            0   -10652.206    114.73721    725.13517    8.9840671    8.9840671    8.9840671    56.218043 
  159500    305.11792    -11567.86            0    -10659.27    15841.005    723.99843    8.9793702    8.9793702    8.9793702    61.168563 
  159600    306.29523    -11575.56            0   -10663.465     17487.16    723.62159     8.977812     8.977812     8.977812      69.3102 
  159700    306.12018   -11577.904            0    -10666.33    6233.0513    724.07056    8.9796684    8.9796684    8.9796684    48.265609 
  159800    293.33786   -11541.367            0   -10667.856   -1999.6737    725.11987     8.984004     8.984004     8.984004    55.974519 
  159900    294.90209   -11546.715            0   -10668.547    1465.5159    726.35324    8.9890948    8.9890948    8.9890948    59.513672 
  160000    282.60303   -11509.446            0   -10667.903   -228.19885    727.73107     8.994775     8.994775     8.994775    49.632027 
  160100    291.44791    -11534.23            0   -10666.348   -10908.161    729.03184     9.000131     9.000131     9.000131     45.32726 
  160200    295.67051   -11544.473            0   -10664.017   -18455.403    729.44843     9.001845     9.001845     9.001845    55.037013 
  160300    300.68278   -11556.518            0   -10661.136   -6597.4028     728.6789    8.9986784    8.9986784    8.9986784    55.749401 
  160400     301.0525   -11552.499            0   -10656.016   -4998.7713    726.99323    8.9917341    8.9917341    8.9917341    48.899627 
  160500    293.25259   -11523.375            0   -10650.119    7424.4566     724.9968    8.9834957    8.9834957    8.9834957    51.248727 
  160600    297.45103   -11528.768            0   -10643.009    14935.423    723.35354    8.9767033    8.9767033    8.9767033    60.270066 
  160700    299.71612   -11528.222            0   -10635.718    27726.891    722.70303    8.9740116    8.9740116    8.9740116    51.568318 
  160800    296.29843   -11508.369            0   -10626.043    23584.795    723.31976    8.9765636    8.9765636    8.9765636    57.196564 
  160900    312.80505   -11551.285            0   -10619.805    10631.826    725.04843    8.9837089    8.9837089    8.9837089    62.808951 
  161000    299.85013   -11504.302            0     -10611.4    9858.5585    727.59779    8.9942259    8.9942259    8.9942259    56.104374 
  161100    294.64476   -11479.007            0   -10601.605   -23685.597    730.48735    9.0061166    9.0061166    9.0061166    51.683495 
  161200    306.90391   -11508.813            0   -10594.905   -22139.694    732.50739    9.0144106    9.0144106    9.0144106    57.386238 
  161300    302.64157   -11489.467            0   -10588.252   -29027.728    732.99935    9.0164282    9.0164282    9.0164282     36.88039 
  161400    308.81769   -11504.023            0   -10584.417   -14796.912    731.78226    9.0114351    9.0114351    9.0114351    47.586236 
  161500    308.15579   -11498.143            0   -10580.508    -6607.029    729.12807     9.000527     9.000527     9.000527    59.555121 
  161600    311.82867   -11506.815            0   -10578.243    7643.9773    725.83227    8.9869452    8.9869452    8.9869452    53.331726 
  161700     304.2973   -11482.638            0   -10576.493    18741.942    723.09137    8.9756187    8.9756187    8.9756187    68.893267 
  161800    309.53465   -11500.163            0   -10578.421    28413.021     721.5536    8.9692514    8.9692514    8.9692514    51.996283 
  161900    309.44224   -11506.463            0   -10584.997    26340.542    721.85176    8.9704867    8.9704867    8.9704867    45.382647 
  162000    304.42748   -11504.885            0   -10598.352    9297.2656    723.95502    8.9791907    8.9791907    8.9791907    52.523982 
Loop time of 1958.53 on 16 procs for 100000 steps with 1000 atoms

Performance: 4.411 ns/day, 5.440 hours/ns, 51.059 timesteps/s
94.8% CPU use with 16 MPI tasks x no OpenMP threads

MPI task timing breakdown:
Section |  min time  |  avg time  |  max time  |%varavg| %total
---------------------------------------------------------------
Pair    | 186.79     | 199.51     | 268.8      | 129.8 | 10.19
Neigh   | 67.335     | 70.931     | 89.785     |  61.7 |  3.62
Comm    | 53.201     | 141.35     | 157.19     | 195.6 |  7.22
Output  | 1040.2     | 1072       | 1543       | 371.5 | 54.73
Modify  | 2.8016     | 474.02     | 505.79     | 558.8 | 24.20
Other   |            | 0.7695     |            |       |  0.04

Nlocal:    62.5 ave 65 max 60 min
Histogram: 1 0 5 0 3 0 2 0 2 3
Nghost:    1943.44 ave 1959 max 1933 min
Histogram: 1 2 4 3 1 1 3 0 0 1
Neighs:    0 ave 0 max 0 min
Histogram: 16 0 0 0 0 0 0 0 0 0
FullNghs:  20301.9 ave 21318 max 19415 min
Histogram: 2 3 1 1 3 1 0 1 3 1

Total # of neighbors = 324830
Ave neighs/atom = 324.83
Neighbor list builds = 100000
Dangerous builds not checked
Total wall time: 0:53:48
