LAMMPS (16 Mar 2018)
Reading data file ...
  orthogonal box = (-4.73877 -4.73877 -4.73877) to (4.73877 4.73877 4.73877)
  2 by 2 by 4 MPI processor grid
  reading atoms ...
  1000 atoms
Reading potential file /home/fs01/ajm529/lammps-16Mar18/potentials/sw_potentials/AG/eps2.23.sw with DATE: 2008-01-29
Neighbor list info ...
  update every 1 steps, delay 0 steps, check no
  max neighbors/atom: 2000, page size: 100000
  master list distance cutoff = 3.836
  ghost atom cutoff = 3.836
  binsize = 1.918, bins = 5 5 5
  1 neighbor lists, perpetual/occasional/extra = 1 0 0
  (1) pair sw, perpetual
      attributes: full, newton on
      pair build: full/bin/atomonly
      stencil: full/bin/3d
      bin: standard
Setting up Verlet run ...
  Unit style    : real
  Current step  : 0
  Time step     : 1
Per MPI rank memory allocation (min/avg/max) = 3.518 | 3.519 | 3.519 Mbytes
Step Temp E_pair E_mol TotEng Press Volume Lx Ly Lz S/CPU 
       0          300   -10084.456            0   -9191.1068   -54284.499     851.3096    9.4775447    9.4775447    9.4775447            0 
     100    339.02052   -10207.068            0   -9197.5232   -53078.828    848.93217    9.4687139    9.4687139    9.4687139     34.89769 
     200    324.73655   -10180.765            0   -9213.7546   -44518.967    841.87499    9.4424031    9.4424031    9.4424031    51.536171 
     300    329.82074   -10220.872            0   -9238.7226   -43190.465    831.09988    9.4019457    9.4019457    9.4019457    37.130684 
     400     341.3861   -10282.485            0   -9265.8957   -20650.979    818.40861    9.3538427    9.3538427    9.3538427    49.971389 
     500    333.70944   -10281.284            0   -9287.5544   -15900.863    806.11933    9.3067871    9.3067871    9.3067871    43.124264 
     600    340.05904   -10318.153            0   -9305.5157    21607.225    795.75672    9.2667356    9.2667356    9.2667356    43.213652 
     700    338.29964   -10328.317            0   -9320.9185    16789.159     788.8605    9.2398886    9.2398886    9.2398886    52.411315 
     800    330.49163   -10324.968            0   -9340.8204    13043.668    784.45938    9.2226732    9.2226732    9.2226732    43.046463 
     900    329.07309   -10341.169            0   -9361.2456    26922.295     781.8609    9.2124787    9.2124787    9.2124787    45.646872 
    1000    330.09573    -10365.72            0   -9382.7511    28097.432    781.15573    9.2097083    9.2097083    9.2097083      50.2534 
Loop time of 22.5449 on 16 procs for 1000 steps with 1000 atoms

Performance: 3.832 ns/day, 6.262 hours/ns, 44.356 timesteps/s
94.3% CPU use with 16 MPI tasks x no OpenMP threads

MPI task timing breakdown:
Section |  min time  |  avg time  |  max time  |%varavg| %total
---------------------------------------------------------------
Pair    | 1.5588     | 1.6293     | 1.7832     |   4.0 |  7.23
Neigh   | 0.57813    | 0.59839    | 0.67135    |   2.7 |  2.65
Comm    | 0.32955    | 0.55646    | 0.64664    |   9.5 |  2.47
Output  | 13.696     | 14.077     | 19.732     |  38.9 | 62.44
Modify  | 0.021463   | 5.6769     | 6.058      |  61.3 | 25.18
Other   |            | 0.006892   |            |       |  0.03

Nlocal:    62.5 ave 66 max 57 min
Histogram: 1 0 1 1 1 3 4 1 3 1
Nghost:    1851.06 ave 1862 max 1832 min
Histogram: 1 1 0 0 1 3 2 3 2 3
Neighs:    0 ave 0 max 0 min
Histogram: 16 0 0 0 0 0 0 0 0 0
FullNghs:  18893 ave 19773 max 17232 min
Histogram: 1 0 1 1 1 2 2 3 0 5

Total # of neighbors = 302288
Ave neighs/atom = 302.288
Neighbor list builds = 1000
Dangerous builds not checked
Setting up Verlet run ...
  Unit style    : real
  Current step  : 1000
  Time step     : 1
Per MPI rank memory allocation (min/avg/max) = 3.769 | 4.426 | 4.579 Mbytes
Step Temp E_pair E_mol TotEng Press Volume Lx Ly Lz S/CPU 
    1000    330.09573    -10365.72            0   -9382.7511    28097.432    781.15573    9.2097083    9.2097083    9.2097083            0 
    1100    323.42786   -10367.546            0   -9404.4328    23528.152    782.23273    9.2139389    9.2139389    9.2139389    48.848733 
    1200    311.97676   -10355.506            0   -9426.4929    14941.224    784.68328    9.2235506    9.2235506    9.2235506    47.117578 
    1300     308.0904   -10363.544            0   -9446.1031    3246.0559    787.63513    9.2351019    9.2351019    9.2351019    45.986606 
    1400    310.23895   -10389.021            0   -9465.1825   -3021.4748    790.73403    9.2471977    9.2471977    9.2471977    40.968531 
    1500     297.8964    -10369.98            0   -9482.8953    727.25374    793.38529    9.2575212    9.2575212    9.2575212    49.900904 
    1600    305.76685   -10410.771            0   -9500.2498    -20923.27    795.42479    9.2654469    9.2654469    9.2654469     50.59261 
    1700    298.04783   -10403.735            0   -9516.1996   -17188.537     796.1166    9.2681323    9.2681323    9.2681323    45.882779 
    1800    309.70363   -10453.706            0   -9531.4615   -623.52184    795.63795    9.2662745    9.2662745    9.2662745    51.749707 
    1900    293.40877   -10418.099            0   -9544.3779    6606.1002    794.72137    9.2627149    9.2627149    9.2627149    60.097572 
    2000    299.50006   -10449.705            0   -9557.8447    8365.1042    793.99241     9.259882     9.259882     9.259882    40.335521 
Loop time of 21.0205 on 16 procs for 1000 steps with 1000 atoms

Performance: 4.110 ns/day, 5.839 hours/ns, 47.573 timesteps/s
94.4% CPU use with 16 MPI tasks x no OpenMP threads

MPI task timing breakdown:
Section |  min time  |  avg time  |  max time  |%varavg| %total
---------------------------------------------------------------
Pair    | 1.6573     | 1.7161     | 1.907      |   4.4 |  8.16
Neigh   | 0.58939    | 0.60728    | 0.6941     |   3.0 |  2.89
Comm    | 0.30279    | 0.58043    | 0.65541    |  10.4 |  2.76
Output  | 12.163     | 12.537     | 18.087     |  40.5 | 59.64
Modify  | 0.021803   | 5.5726     | 5.947      |  60.7 | 26.51
Other   |            | 0.006905   |            |       |  0.03

Nlocal:    62.5 ave 68 max 57 min
Histogram: 3 1 0 0 2 2 5 2 0 1
Nghost:    1834.88 ave 1863 max 1809 min
Histogram: 2 1 2 1 2 4 1 1 0 2
Neighs:    0 ave 0 max 0 min
Histogram: 16 0 0 0 0 0 0 0 0 0
FullNghs:  18574.5 ave 20246 max 16913 min
Histogram: 3 1 0 0 1 4 4 1 1 1

Total # of neighbors = 297192
Ave neighs/atom = 297.192
Neighbor list builds = 1000
Dangerous builds not checked
Setting up Verlet run ...
  Unit style    : real
  Current step  : 2000
  Time step     : 1
Per MPI rank memory allocation (min/avg/max) = 4.577 | 4.578 | 4.579 Mbytes
Step Temp E_pair E_mol TotEng Press Volume Lx Ly Lz S/CPU 
    2000    299.50006   -10449.705            0   -9557.8447    8365.1042    793.99241     9.259882     9.259882     9.259882            0 
    2100     301.5335   -10468.863            0   -9570.9481    1713.1584    793.41818    9.2576491    9.2576491    9.2576491    44.575751 
    2200    303.22713   -10487.556            0   -9584.5977    2726.1489     792.7944    9.2552224    9.2552224    9.2552224    43.302875 
    2300    299.78246   -10488.632            0   -9595.9314    -18187.17    791.79744    9.2513412    9.2513412    9.2513412    49.368843 
    2400    293.15702   -10480.099            0   -9607.1273    7317.3357    790.31173    9.2455512    9.2455512    9.2455512    53.042943 
    2500    298.53499   -10506.308            0   -9617.3222   -8717.4938    788.87878      9.23996      9.23996      9.23996    40.487042 
    2600    300.19933   -10521.158            0   -9627.2153   -12625.404    786.99505    9.2325996    9.2325996    9.2325996    53.876907 
    2700    307.40671   -10549.419            0   -9634.0146   -5239.8231    784.99507     9.224772     9.224772     9.224772     48.08993 
    2800     300.6346   -10536.434            0   -9641.1959   -166.43743    783.01347    9.2170033    9.2170033    9.2170033    39.538032 
    2900    301.88632   -10546.082            0   -9647.1165   -510.86402    781.52383    9.2111547    9.2111547    9.2111547    52.199258 
    3000    295.32244   -10530.988            0   -9651.5677    19203.887    780.56905    9.2074021    9.2074021    9.2074021    43.234071 
Loop time of 21.6269 on 16 procs for 1000 steps with 1000 atoms

Performance: 3.995 ns/day, 6.007 hours/ns, 46.239 timesteps/s
94.4% CPU use with 16 MPI tasks x no OpenMP threads

MPI task timing breakdown:
Section |  min time  |  avg time  |  max time  |%varavg| %total
---------------------------------------------------------------
Pair    | 1.6447     | 1.7228     | 1.8916     |   4.9 |  7.97
Neigh   | 0.5918     | 0.60902    | 0.69783    |   3.1 |  2.82
Comm    | 0.35108    | 0.60904    | 0.70205    |  10.9 |  2.82
Output  | 13.223     | 13.567     | 18.656     |  35.7 | 62.73
Modify  | 0.022065   | 5.1125     | 5.4561     |  58.1 | 23.64
Other   |            | 0.006897   |            |       |  0.03

Nlocal:    62.5 ave 68 max 54 min
Histogram: 1 0 1 0 2 4 1 5 1 1
Nghost:    1860.5 ave 1876 max 1848 min
Histogram: 1 2 3 3 2 0 2 0 1 2
Neighs:    0 ave 0 max 0 min
Histogram: 16 0 0 0 0 0 0 0 0 0
FullNghs:  18915.1 ave 20429 max 16388 min
Histogram: 1 0 1 0 3 1 4 1 4 1

Total # of neighbors = 302642
Ave neighs/atom = 302.642
Neighbor list builds = 1000
Dangerous builds not checked
Setting up Verlet run ...
  Unit style    : real
  Current step  : 3000
  Time step     : 1
Per MPI rank memory allocation (min/avg/max) = 4.577 | 4.578 | 4.579 Mbytes
Step Temp E_pair E_mol TotEng Press Volume Lx Ly Lz S/CPU 
    3000    295.32244   -10530.988            0   -9651.5677    19203.887    780.56905    9.2074021    9.2074021    9.2074021            0 
    3100    300.03257   -10548.835            0   -9655.3891   -5061.2679    780.29763    9.2063348    9.2063348    9.2063348    62.306674 
    3200    296.04518   -10538.979            0   -9657.4073   -6742.9654    780.27807    9.2062578    9.2062578    9.2062578    44.974056 
    3300    285.80768   -10508.541            0   -9657.4544   -513.91831    780.27184    9.2062333    9.2062333    9.2062333    36.052613 
    3400    291.86202   -10527.377            0   -9658.2613    6432.9452    780.39165    9.2067045    9.2067045    9.2067045    46.013843 
    3500    294.71128   -10534.508            0   -9656.9078   -4771.7295    780.87322    9.2085979    9.2085979    9.2085979    48.823247 
    3600    292.77914   -10525.419            0   -9653.5726   -10113.331     781.5854    9.2113966    9.2113966    9.2113966    56.271338 
    3700    289.92379   -10512.047            0   -9648.7038    1524.8777    782.44714    9.2147807    9.2147807    9.2147807    32.420613 
    3800     288.1253   -10499.818            0     -9641.83    5317.9361    783.48144    9.2188392    9.2188392    9.2188392    33.820907 
    3900    300.88689   -10531.158            0   -9635.1679   -9208.8197    784.48824    9.2227863    9.2227863    9.2227863    47.575202 
    4000    294.37276   -10503.893            0   -9627.3008   -15811.818    785.16257    9.2254281    9.2254281    9.2254281    58.232316 
Loop time of 22.4612 on 16 procs for 1000 steps with 1000 atoms

Performance: 3.847 ns/day, 6.239 hours/ns, 44.521 timesteps/s
94.4% CPU use with 16 MPI tasks x no OpenMP threads

MPI task timing breakdown:
Section |  min time  |  avg time  |  max time  |%varavg| %total
---------------------------------------------------------------
Pair    | 1.654      | 1.751      | 1.8809     |   4.3 |  7.80
Neigh   | 0.58712    | 0.60995    | 0.67813    |   2.5 |  2.72
Comm    | 0.37004    | 0.56826    | 0.68759    |   9.8 |  2.53
Output  | 14.271     | 14.602     | 19.503     |  33.1 | 65.01
Modify  | 0.021645   | 4.9234     | 5.2542     |  57.0 | 21.92
Other   |            | 0.00695    |            |       |  0.03

Nlocal:    62.5 ave 68 max 56 min
Histogram: 1 1 1 2 1 4 1 1 2 2
Nghost:    1856 ave 1887 max 1836 min
Histogram: 5 2 0 0 2 2 2 2 0 1
Neighs:    0 ave 0 max 0 min
Histogram: 16 0 0 0 0 0 0 0 0 0
FullNghs:  18785.4 ave 20445 max 16670 min
Histogram: 1 1 2 1 1 4 0 3 0 3

Total # of neighbors = 300566
Ave neighs/atom = 300.566
Neighbor list builds = 1000
Dangerous builds not checked
Setting up Verlet run ...
  Unit style    : real
  Current step  : 4000
  Time step     : 1
Per MPI rank memory allocation (min/avg/max) = 4.577 | 4.578 | 4.579 Mbytes
Step Temp E_pair E_mol TotEng Press Volume Lx Ly Lz S/CPU 
    4000    294.37276   -10503.893            0   -9627.3008   -15811.818    785.16257    9.2254281    9.2254281    9.2254281            0 
    4100    311.14523    -10547.86            0   -9621.3222   -5167.0671     785.1171      9.22525      9.22525      9.22525    56.726794 
    4200    309.20646   -10533.558            0   -9612.7942    8554.3344    784.26777    9.2219222    9.2219222    9.2219222    44.756504 
    4300    298.95226   -10496.272            0   -9606.0436   -1767.8898    783.21254    9.2177844    9.2177844    9.2177844    40.240806 
    4400    294.71832   -10475.962            0   -9598.3416   -1569.2004    782.41728    9.2146635    9.2146635    9.2146635     40.58372 
    4500    304.33873   -10498.925            0   -9592.6566    -3089.712    781.87514    9.2125347    9.2125347    9.2125347    55.344621 
    4600    311.44939   -10515.017            0   -9587.5744    13977.623    781.22696    9.2099882    9.2099882    9.2099882    44.630722 
    4700    294.10064   -10457.637            0   -9581.8555    1743.6103    780.98304    9.2090296    9.2090296    9.2090296    61.366873 
    4800    299.02288    -10468.44            0   -9578.0012    475.66574    781.19119    9.2098476    9.2098476    9.2098476    41.394071 
    4900    311.29158   -10501.062            0   -9574.0888   -5973.1525    781.50476    9.2110797    9.2110797    9.2110797    45.954785 
    5000    298.15182   -10457.639            0   -9569.7937    6354.0715     782.0063    9.2130498    9.2130498    9.2130498    53.249743 
Loop time of 21.0931 on 16 procs for 1000 steps with 1000 atoms

Performance: 4.096 ns/day, 5.859 hours/ns, 47.409 timesteps/s
94.4% CPU use with 16 MPI tasks x no OpenMP threads

MPI task timing breakdown:
Section |  min time  |  avg time  |  max time  |%varavg| %total
---------------------------------------------------------------
Pair    | 1.6679     | 1.7487     | 1.9656     |   5.2 |  8.29
Neigh   | 0.59204    | 0.61007    | 0.70009    |   3.1 |  2.89
Comm    | 0.29836    | 0.60523    | 0.70323    |  11.7 |  2.87
Output  | 12.637     | 12.982     | 18.099     |  36.7 | 61.55
Modify  | 0.021837   | 5.1401     | 5.4856     |  58.3 | 24.37
Other   |            | 0.006967   |            |       |  0.03

Nlocal:    62.5 ave 68 max 57 min
Histogram: 3 1 2 2 0 0 3 0 2 3
Nghost:    1868.75 ave 1879 max 1856 min
Histogram: 1 2 0 2 1 2 2 3 1 2
Neighs:    0 ave 0 max 0 min
Histogram: 16 0 0 0 0 0 0 0 0 0
FullNghs:  18870.1 ave 20457 max 17121 min
Histogram: 2 1 2 2 1 0 3 0 2 3

Total # of neighbors = 301922
Ave neighs/atom = 301.922
Neighbor list builds = 1000
Dangerous builds not checked
Setting up Verlet run ...
  Unit style    : real
  Current step  : 5000
  Time step     : 1
Per MPI rank memory allocation (min/avg/max) = 4.577 | 4.578 | 4.579 Mbytes
Step Temp E_pair E_mol TotEng Press Volume Lx Ly Lz S/CPU 
    5000    298.15182   -10457.639            0   -9569.7937    6354.0715     782.0063    9.2130498    9.2130498    9.2130498            0 
    5100    295.85862   -10448.364            0   -9567.3473    18419.267    783.04107    9.2171116    9.2171116    9.2171116     42.19613 
    5200    301.85424   -10462.475            0   -9563.6045    -2861.316    784.27147    9.2219367    9.2219367    9.2219367    64.222396 
    5300    302.04496   -10459.176            0   -9559.7377   -5670.5022    785.09911    9.2251796    9.2251796    9.2251796    61.719464 
    5400    305.22068   -10465.787            0   -9556.8924    2136.4191    785.73003    9.2276501    9.2276501    9.2276501    32.391397 
    5500     290.6647   -10417.995            0   -9552.4455     3212.978    786.80854    9.2318702    9.2318702    9.2318702    50.634558 
    5600    302.99111   -10451.726            0   -9549.4705    4797.8436    787.76744     9.235619     9.235619     9.235619    51.589474 
    5700    309.73792   -10468.627            0     -9546.28     4956.191    788.38177    9.2380191    9.2380191    9.2380191    41.225366 
    5800    297.32317   -10425.634            0   -9540.2561   -5150.4547    788.64632    9.2390523    9.2390523    9.2390523    69.353986 
    5900    301.19057   -10433.937            0   -9537.0434   -3568.9063    788.63522     9.239009     9.239009     9.239009    56.612324 
    6000    301.20309   -10432.642            0   -9535.7109   -4332.5676    788.94538      9.24022      9.24022      9.24022    41.970143 
Loop time of 20.5644 on 16 procs for 1000 steps with 1000 atoms

Performance: 4.201 ns/day, 5.712 hours/ns, 48.628 timesteps/s
94.5% CPU use with 16 MPI tasks x no OpenMP threads

MPI task timing breakdown:
Section |  min time  |  avg time  |  max time  |%varavg| %total
---------------------------------------------------------------
Pair    | 1.6518     | 1.7383     | 1.958      |   5.2 |  8.45
Neigh   | 0.59205    | 0.60972    | 0.68744    |   2.8 |  2.96
Comm    | 0.355      | 0.6523     | 0.75574    |  11.1 |  3.17
Output  | 11.327     | 11.718     | 17.535     |  43.9 | 56.98
Modify  | 0.021674   | 5.8387     | 6.2304     |  62.2 | 28.39
Other   |            | 0.006949   |            |       |  0.03

Nlocal:    62.5 ave 66 max 57 min
Histogram: 2 0 1 1 1 1 2 4 2 2
Nghost:    1860.19 ave 1880 max 1835 min
Histogram: 1 0 1 1 3 3 3 2 1 1
Neighs:    0 ave 0 max 0 min
Histogram: 16 0 0 0 0 0 0 0 0 0
FullNghs:  18693.2 ave 19819 max 16995 min
Histogram: 2 1 0 1 1 1 2 4 1 3

Total # of neighbors = 299092
Ave neighs/atom = 299.092
Neighbor list builds = 1000
Dangerous builds not checked
Setting up Verlet run ...
  Unit style    : real
  Current step  : 6000
  Time step     : 1
Per MPI rank memory allocation (min/avg/max) = 4.577 | 4.578 | 4.579 Mbytes
Step Temp E_pair E_mol TotEng Press Volume Lx Ly Lz S/CPU 
    6000    301.20309   -10432.642            0   -9535.7109   -4332.5676    788.94538      9.24022      9.24022      9.24022            0 
    6100     311.0248   -10460.538            0   -9534.3597   -2819.7486    789.32668    9.2417084    9.2417084    9.2417084    51.577251 
    6200    302.93241   -10437.046            0   -9534.9648     8885.856    789.87548    9.2438497    9.2438497    9.2438497    56.111009 
    6300    300.71145   -10432.775            0   -9537.3081   -4205.1476    790.67958    9.2469855    9.2469855    9.2469855    49.440998 
    6400    307.32504   -10456.018            0   -9540.8568    15312.741    791.78259    9.2512834    9.2512834    9.2512834    50.694213 
    6500    301.93492    -10445.05            0   -9545.9397   -18763.259     793.2137    9.2568537    9.2568537    9.2568537    53.689775 
    6600    295.30613   -10431.506            0   -9552.1347   -6321.2444     794.2629    9.2609333    9.2609333    9.2609333    36.610816 
    6700    302.93125   -10462.141            0   -9560.0638   -20237.171    794.87922    9.2633281    9.2633281    9.2633281    41.390507 
    6800     297.1033   -10453.462            0   -9568.7387    -6688.857    794.44251    9.2616314    9.2616314    9.2616314     49.85122 
    6900     299.4098   -10468.599            0   -9577.0082   -21254.098     793.0166     9.256087     9.256087     9.256087    54.360365 
    7000    291.46651    -10455.08            0   -9587.1429   -13288.123    790.61204    9.2467221    9.2467221    9.2467221    48.025399 
Loop time of 20.654 on 16 procs for 1000 steps with 1000 atoms

Performance: 4.183 ns/day, 5.737 hours/ns, 48.417 timesteps/s
94.4% CPU use with 16 MPI tasks x no OpenMP threads

MPI task timing breakdown:
Section |  min time  |  avg time  |  max time  |%varavg| %total
---------------------------------------------------------------
Pair    | 1.622      | 1.7053     | 1.9256     |   5.3 |  8.26
Neigh   | 0.58078    | 0.60717    | 0.70019    |   3.4 |  2.94
Comm    | 0.30133    | 0.61463    | 0.72316    |  12.0 |  2.98
Output  | 11.967     | 12.329     | 17.697     |  39.5 | 59.69
Modify  | 0.021655   | 5.3909     | 5.7531     |  59.7 | 26.10
Other   |            | 0.006898   |            |       |  0.03

Nlocal:    62.5 ave 68 max 57 min
Histogram: 2 0 2 3 1 2 2 0 3 1
Nghost:    1837 ave 1860 max 1809 min
Histogram: 1 0 3 2 1 2 2 1 2 2
Neighs:    0 ave 0 max 0 min
Histogram: 16 0 0 0 0 0 0 0 0 0
FullNghs:  18664.6 ave 20460 max 16888 min
Histogram: 1 1 2 2 2 2 2 1 2 1

Total # of neighbors = 298634
Ave neighs/atom = 298.634
Neighbor list builds = 1000
Dangerous builds not checked
Setting up Verlet run ...
  Unit style    : real
  Current step  : 7000
  Time step     : 1
Per MPI rank memory allocation (min/avg/max) = 4.577 | 4.578 | 4.579 Mbytes
Step Temp E_pair E_mol TotEng Press Volume Lx Ly Lz S/CPU 
    7000    291.46651    -10455.08            0   -9587.1429   -13288.123    790.61204    9.2467221    9.2467221    9.2467221            0 
    7100    294.65791   -10475.787            0   -9598.3464   -773.06725    787.25913    9.2336321    9.2336321    9.2336321    40.211368 
    7200    303.66481   -10511.211            0   -9606.9487   -2755.4547    783.61721    9.2193716    9.2193716    9.2193716    40.140947 
    7300    297.06184   -10500.409            0   -9615.8097   -3580.9277    780.31983    9.2064221    9.2064221    9.2064221    51.632616 
    7400    293.70173   -10496.589            0   -9621.9954    12407.314    777.48003    9.1952402    9.1952402    9.1952402     56.52398 
    7500    302.93782   -10529.186            0   -9627.0889    7638.0027     775.6303    9.1879422    9.1879422    9.1879422    54.640609 
    7600    294.19962   -10508.727            0   -9632.6509    9371.3018     774.6856    9.1842105    9.1842105    9.1842105    42.143123 
    7700    290.12395   -10499.762            0   -9635.8225    27519.351    774.63199    9.1839986    9.1839986    9.1839986    52.709622 
    7800    298.21514   -10525.375            0   -9637.3415     1926.895     775.4476    9.1872208    9.1872208    9.1872208    44.316793 
    7900    294.62176   -10515.721            0   -9638.3877    182.32486    776.63194    9.1918956    9.1918956    9.1918956    63.522865 
    8000    292.97472   -10509.272            0   -9636.8438   -1281.8021    777.97124    9.1971764    9.1971764    9.1971764    60.512467 
Loop time of 20.2675 on 16 procs for 1000 steps with 1000 atoms

Performance: 4.263 ns/day, 5.630 hours/ns, 49.340 timesteps/s
94.4% CPU use with 16 MPI tasks x no OpenMP threads

MPI task timing breakdown:
Section |  min time  |  avg time  |  max time  |%varavg| %total
---------------------------------------------------------------
Pair    | 1.6802     | 1.7599     | 1.8545     |   3.2 |  8.68
Neigh   | 0.59326    | 0.60948    | 0.66247    |   2.0 |  3.01
Comm    | 0.37927    | 0.52716    | 0.62059    |   7.7 |  2.60
Output  | 11.91      | 12.253     | 17.342     |  37.5 | 60.46
Modify  | 0.021475   | 5.1109     | 5.454      |  58.1 | 25.22
Other   |            | 0.006994   |            |       |  0.03

Nlocal:    62.5 ave 67 max 56 min
Histogram: 1 1 0 2 2 2 1 2 2 3
Nghost:    1875.5 ave 1902 max 1861 min
Histogram: 3 3 1 4 2 0 1 1 0 1
Neighs:    0 ave 0 max 0 min
Histogram: 16 0 0 0 0 0 0 0 0 0
FullNghs:  18966 ave 20369 max 16767 min
Histogram: 1 0 1 1 3 2 1 1 4 2

Total # of neighbors = 303456
Ave neighs/atom = 303.456
Neighbor list builds = 1000
Dangerous builds not checked
Setting up Verlet run ...
  Unit style    : real
  Current step  : 8000
  Time step     : 1
Per MPI rank memory allocation (min/avg/max) = 4.577 | 4.578 | 4.579 Mbytes
Step Temp E_pair E_mol TotEng Press Volume Lx Ly Lz S/CPU 
    8000    292.97472   -10509.272            0   -9636.8438   -1281.8021    777.97124    9.1971764    9.1971764    9.1971764            0 
    8100    293.58438    -10509.07            0    -9634.826    2369.1787    779.49598    9.2031809    9.2031809    9.2031809    52.891469 
    8200     293.5418   -10505.716            0   -9631.5982   -19381.011     781.2925    9.2102457    9.2102457    9.2102457    47.521349 
    8300    299.44811   -10519.386            0   -9627.6809   -7207.6763    782.58153    9.2153082    9.2153082    9.2153082    55.946183 
    8400    288.99371   -10483.598            0   -9623.0238    8510.7239    783.44681    9.2187033    9.2187033    9.2187033    42.432199 
    8500    293.56155    -10491.92            0   -9617.7435    4329.6045    784.13218    9.2213908    9.2213908    9.2213908    56.105901 
    8600    295.11956    -10490.22            0   -9611.4047     9746.211    784.76174     9.223858     9.223858     9.223858    49.119281 
    8700    301.83977    -10500.95            0   -9602.1232   -18243.525    785.24563    9.2257534    9.2257534    9.2257534    44.601774 
    8800    297.81681   -10475.509            0   -9588.6618   -12930.652    785.20687    9.2256016    9.2256016    9.2256016    54.361853 
    8900    295.97548   -10452.188            0   -9570.8234     12826.59     784.8176    9.2240768    9.2240768    9.2240768    56.908538 
    9000    295.62005   -10432.272            0   -9551.9664    8163.1229    784.69981    9.2236153    9.2236153    9.2236153    43.671032 
Loop time of 20.086 on 16 procs for 1000 steps with 1000 atoms

Performance: 4.302 ns/day, 5.579 hours/ns, 49.786 timesteps/s
94.5% CPU use with 16 MPI tasks x no OpenMP threads

MPI task timing breakdown:
Section |  min time  |  avg time  |  max time  |%varavg| %total
---------------------------------------------------------------
Pair    | 1.6845     | 1.7472     | 1.9718     |   5.0 |  8.70
Neigh   | 0.58978    | 0.61039    | 0.69727    |   3.1 |  3.04
Comm    | 0.3389     | 0.6502     | 0.72578    |  11.1 |  3.24
Output  | 11.106     | 11.481     | 17.048     |  42.4 | 57.16
Modify  | 0.021969   | 5.5905     | 5.9661     |  60.8 | 27.83
Other   |            | 0.006975   |            |       |  0.03

Nlocal:    62.5 ave 70 max 54 min
Histogram: 1 0 0 1 3 5 4 1 0 1
Nghost:    1858.88 ave 1880 max 1844 min
Histogram: 3 1 2 2 2 2 2 0 0 2
Neighs:    0 ave 0 max 0 min
Histogram: 16 0 0 0 0 0 0 0 0 0
FullNghs:  18804.2 ave 21237 max 16550 min
Histogram: 1 0 1 2 5 4 1 1 0 1

Total # of neighbors = 300868
Ave neighs/atom = 300.868
Neighbor list builds = 1000
Dangerous builds not checked
Setting up Verlet run ...
  Unit style    : real
  Current step  : 9000
  Time step     : 1
Per MPI rank memory allocation (min/avg/max) = 4.577 | 4.578 | 4.579 Mbytes
Step Temp E_pair E_mol TotEng Press Volume Lx Ly Lz S/CPU 
    9000    295.62005   -10432.272            0   -9551.9664    8163.1229    784.69981    9.2236153    9.2236153    9.2236153            0 
    9100    301.10217   -10434.502            0   -9537.8712   -1982.8564    784.97274    9.2246846    9.2246846    9.2246846    41.852661 
    9200    304.25609   -10436.624            0   -9530.6017   -1499.7707    785.43293    9.2264869    9.2264869    9.2264869    47.179248 
    9300    306.86616   -10440.775            0   -9526.9802     6920.592    786.03615    9.2288483    9.2288483    9.2288483    44.766064 
    9400    315.02518    -10463.81            0   -9525.7189   -2666.0765      786.715    9.2315043    9.2315043    9.2315043    65.447636 
    9500    292.25233   -10394.819            0   -9524.5411   -5920.8138    787.05632    9.2328392    9.2328392    9.2328392    38.401257 
    9600    304.33825   -10433.252            0   -9526.9844   -15659.253     787.0964    9.2329959    9.2329959    9.2329959    47.032447 
    9700    308.03145   -10447.918            0   -9530.6526    4466.3134    786.71292    9.2314962    9.2314962    9.2314962    49.041949 
    9800    312.05794   -10465.853            0   -9536.5975    3760.2051    786.68515    9.2313876    9.2313876    9.2313876    44.445013 
    9900    306.31614   -10455.262            0   -9543.1044    6181.7113    787.37353    9.2340794    9.2340794    9.2340794    40.885597 
   10000    296.36096   -10432.664            0    -9550.152      782.832    788.30616    9.2377238    9.2377238    9.2377238    53.108735 
Loop time of 21.6188 on 16 procs for 1000 steps with 1000 atoms

Performance: 3.997 ns/day, 6.005 hours/ns, 46.256 timesteps/s
94.4% CPU use with 16 MPI tasks x no OpenMP threads

MPI task timing breakdown:
Section |  min time  |  avg time  |  max time  |%varavg| %total
---------------------------------------------------------------
Pair    | 1.6516     | 1.7285     | 1.874      |   3.4 |  8.00
Neigh   | 0.58843    | 0.60679    | 0.6669     |   2.1 |  2.81
Comm    | 0.31858    | 0.52441    | 0.61895    |   8.3 |  2.43
Output  | 13.087     | 13.444     | 18.73      |  37.2 | 62.19
Modify  | 0.021479   | 5.3085     | 5.6651     |  59.2 | 24.56
Other   |            | 0.006931   |            |       |  0.03

Nlocal:    62.5 ave 66 max 50 min
Histogram: 1 0 0 0 0 0 3 0 9 3
Nghost:    1846.25 ave 1868 max 1824 min
Histogram: 2 2 1 1 2 0 2 4 1 1
Neighs:    0 ave 0 max 0 min
Histogram: 16 0 0 0 0 0 0 0 0 0
FullNghs:  18709.1 ave 20000 max 14775 min
Histogram: 1 0 0 0 0 1 2 3 6 3

Total # of neighbors = 299346
Ave neighs/atom = 299.346
Neighbor list builds = 1000
Dangerous builds not checked
Setting up Verlet run ...
  Unit style    : real
  Current step  : 10000
  Time step     : 1
Per MPI rank memory allocation (min/avg/max) = 4.577 | 4.578 | 4.579 Mbytes
Step Temp E_pair E_mol TotEng Press Volume Lx Ly Lz S/CPU 
   10000    296.36096   -10432.664            0    -9550.152      782.832    788.30616    9.2377238    9.2377238    9.2377238            0 
   10100    302.14779   -10459.575            0     -9559.83   -2048.3565    789.21928    9.2412892    9.2412892    9.2412892    40.722915 
   10200      308.495    -10489.41            0   -9570.7643   -9562.5393    789.97897    9.2442534    9.2442534    9.2442534    48.598382 
   10300    299.06508   -10470.158            0   -9579.5929   -16562.622    789.60583    9.2427977    9.2427977    9.2427977     47.65274 
   10400    305.61101   -10499.889            0   -9589.8314   -18466.532    788.16679    9.2371794    9.2371794    9.2371794    35.213911 
   10500    315.31547   -10536.348            0   -9597.3922   -2403.2543    785.99175    9.2286745    9.2286745    9.2286745    41.159643 
   10600    308.46707   -10522.788            0   -9604.2257    4585.3059     783.5019    9.2189194    9.2189194    9.2189194    61.249886 
   10700    307.37644    -10525.94            0    -9610.625    2444.9396    780.88993    9.2086636    9.2086636    9.2086636    48.975034 
   10800    306.45032   -10528.456            0   -9615.8995    7371.2806    778.18383     9.198014     9.198014     9.198014      57.8692 
   10900    315.35265   -10559.524            0   -9620.4573     12492.74    776.18781    9.1901431    9.1901431    9.1901431    51.268267 
   11000    289.50355   -10486.217            0   -9624.1249     10848.65    775.29863    9.1866324    9.1866324    9.1866324    43.239489 
Loop time of 21.547 on 16 procs for 1000 steps with 1000 atoms

Performance: 4.010 ns/day, 5.985 hours/ns, 46.410 timesteps/s
94.4% CPU use with 16 MPI tasks x no OpenMP threads

MPI task timing breakdown:
Section |  min time  |  avg time  |  max time  |%varavg| %total
---------------------------------------------------------------
Pair    | 1.6328     | 1.741      | 1.8819     |   5.1 |  8.08
Neigh   | 0.58245    | 0.60881    | 0.68784    |   2.9 |  2.83
Comm    | 0.385      | 0.6052     | 0.73905    |  11.1 |  2.81
Output  | 12.076     | 12.485     | 18.563     |  44.4 | 57.95
Modify  | 0.021719   | 6.0996     | 6.509      |  63.5 | 28.31
Other   |            | 0.006942   |            |       |  0.03

Nlocal:    62.5 ave 67 max 57 min
Histogram: 2 1 0 0 2 1 5 0 3 2
Nghost:    1872.75 ave 1892 max 1862 min
Histogram: 1 5 1 2 2 3 1 0 0 1
Neighs:    0 ave 0 max 0 min
Histogram: 16 0 0 0 0 0 0 0 0 0
FullNghs:  19029.5 ave 20373 max 17238 min
Histogram: 2 1 0 1 2 1 3 2 2 2

Total # of neighbors = 304472
Ave neighs/atom = 304.472
Neighbor list builds = 1000
Dangerous builds not checked
Setting up Verlet run ...
  Unit style    : real
  Current step  : 11000
  Time step     : 1
Per MPI rank memory allocation (min/avg/max) = 4.577 | 4.578 | 4.579 Mbytes
Step Temp E_pair E_mol TotEng Press Volume Lx Ly Lz S/CPU 
   11000    289.50355   -10486.217            0   -9624.1249     10848.65    775.29863    9.1866324    9.1866324    9.1866324            0 
   11100    288.22607   -10485.633            0   -9627.3448    12712.558    775.39885    9.1870282    9.1870282    9.1870282    51.370737 
   11200     292.6448   -10501.923            0   -9630.4763    6548.9732    776.43792    9.1911301    9.1911301    9.1911301    39.735204 
   11300    300.85481    -10527.61            0   -9631.7155    2987.1241    778.20424    9.1980945    9.1980945    9.1980945    56.315054 
   11400    293.59825   -10504.833            0   -9630.5473   -3521.7597    780.05393    9.2053762    9.2053762    9.2053762    45.230003 
   11500    303.33697   -10531.824            0   -9628.5378   -14118.095    781.53931    9.2112155    9.2112155    9.2112155     45.95972 
   11600    302.23232   -10525.571            0   -9625.5748   -11510.147    782.26137    9.2140514    9.2140514    9.2140514    45.315401 
   11700    288.99094   -10481.346            0   -9620.7802    6265.0444    782.28247    9.2141342    9.2141342    9.2141342    53.694977 
   11800    291.14362   -10482.457            0   -9615.4808   -4091.8298    782.44929    9.2147891    9.2147891    9.2147891      38.8313 
   11900    295.73532   -10488.218            0   -9607.5685   -8329.2027    782.48875     9.214944     9.214944     9.214944    41.903414 
   12000    298.79993   -10488.353            0   -9598.5779   -10197.893    782.21471    9.2138682    9.2138682    9.2138682    43.047373 
Loop time of 21.9796 on 16 procs for 1000 steps with 1000 atoms

Performance: 3.931 ns/day, 6.105 hours/ns, 45.497 timesteps/s
94.4% CPU use with 16 MPI tasks x no OpenMP threads

MPI task timing breakdown:
Section |  min time  |  avg time  |  max time  |%varavg| %total
---------------------------------------------------------------
Pair    | 1.6859     | 1.7634     | 1.953      |   4.9 |  8.02
Neigh   | 0.59165    | 0.61026    | 0.6841     |   2.6 |  2.78
Comm    | 0.33887    | 0.60205    | 0.69942    |  10.9 |  2.74
Output  | 12.943     | 13.324     | 18.974     |  40.0 | 60.62
Modify  | 0.021636   | 5.6725     | 6.0536     |  61.3 | 25.81
Other   |            | 0.006953   |            |       |  0.03

Nlocal:    62.5 ave 65 max 57 min
Histogram: 2 0 0 1 0 2 1 3 2 5
Nghost:    1861.25 ave 1882 max 1847 min
Histogram: 4 0 3 1 2 2 1 0 1 2
Neighs:    0 ave 0 max 0 min
Histogram: 16 0 0 0 0 0 0 0 0 0
FullNghs:  18862.6 ave 19837 max 17050 min
Histogram: 2 0 0 1 2 1 1 3 1 5

Total # of neighbors = 301802
Ave neighs/atom = 301.802
Neighbor list builds = 1000
Dangerous builds not checked
Setting up Verlet run ...
  Unit style    : real
  Current step  : 12000
  Time step     : 1
Per MPI rank memory allocation (min/avg/max) = 4.577 | 4.578 | 4.579 Mbytes
Step Temp E_pair E_mol TotEng Press Volume Lx Ly Lz S/CPU 
   12000    298.79993   -10488.353            0   -9598.5779   -10197.893    782.21471    9.2138682    9.2138682    9.2138682            0 
   12100    310.99665    -10515.03            0   -9588.9351   -4996.5075    781.18626    9.2098283    9.2098283    9.2098283    34.916071 
   12200    298.58608   -10465.882            0    -9576.744    1994.9323    779.68248    9.2039149    9.2039149    9.2039149    43.979549 
   12300    305.54414   -10475.839            0   -9565.9803    5368.6354    778.08249    9.1976147    9.1976147    9.1976147    43.633113 
   12400    304.04293   -10461.247            0   -9555.8593    7340.4619    776.71705    9.1922313    9.1922313    9.1922313    53.492608 
   12500    312.29955   -10479.234            0   -9549.2594    14602.934    775.66566    9.1880818    9.1880818    9.1880818    43.737709 
   12600    301.04625   -10440.597            0   -9544.1325     15935.78    775.20294    9.1862544    9.1862544    9.1862544    49.189568 
   12700    301.55835   -10440.771            0   -9542.7812    21811.226    775.59139    9.1877886    9.1877886    9.1877886    40.853683 
   12800    312.97027   -10477.964            0   -9545.9916    5000.3272    776.71479    9.1922224    9.1922224    9.1922224    43.357816 
   12900    319.65097   -10502.446            0   -9550.5805    22115.956    778.75478     9.200263     9.200263     9.200263    57.093689 
   13000    305.38946   -10466.539            0   -9557.1414    2934.1113     782.1186    9.2134908    9.2134908    9.2134908     55.14256 
Loop time of 21.9375 on 16 procs for 1000 steps with 1000 atoms

Performance: 3.938 ns/day, 6.094 hours/ns, 45.584 timesteps/s
94.4% CPU use with 16 MPI tasks x no OpenMP threads

MPI task timing breakdown:
Section |  min time  |  avg time  |  max time  |%varavg| %total
---------------------------------------------------------------
Pair    | 1.7086     | 1.7723     | 1.942      |   4.1 |  8.08
Neigh   | 0.59481    | 0.6114     | 0.68453    |   2.6 |  2.79
Comm    | 0.34156    | 0.58459    | 0.65929    |   9.6 |  2.66
Output  | 12.841     | 13.226     | 18.94      |  40.6 | 60.29
Modify  | 0.021716   | 5.7361     | 6.1211     |  61.6 | 26.15
Other   |            | 0.006983   |            |       |  0.03

Nlocal:    62.5 ave 68 max 58 min
Histogram: 2 1 4 0 1 3 0 0 2 3
Nghost:    1863.69 ave 1887 max 1840 min
Histogram: 1 4 0 1 2 1 1 1 2 3
Neighs:    0 ave 0 max 0 min
Histogram: 16 0 0 0 0 0 0 0 0 0
FullNghs:  18876.1 ave 20417 max 17593 min
Histogram: 3 4 0 1 2 1 0 0 2 3

Total # of neighbors = 302018
Ave neighs/atom = 302.018
Neighbor list builds = 1000
Dangerous builds not checked
Setting up Verlet run ...
  Unit style    : real
  Current step  : 13000
  Time step     : 1
Per MPI rank memory allocation (min/avg/max) = 4.577 | 4.578 | 4.579 Mbytes
Step Temp E_pair E_mol TotEng Press Volume Lx Ly Lz S/CPU 
   13000    305.38946   -10466.539            0   -9557.1414    2934.1113     782.1186    9.2134908    9.2134908    9.2134908            0 
   13100    300.62609   -10459.029            0   -9563.8156    13736.973    786.45429    9.2304845    9.2304845    9.2304845     46.89982 
   13200    300.15665   -10462.008            0   -9568.1926   -9351.6656    791.00674    9.2482607    9.2482607    9.2482607    59.349016 
   13300    300.66494   -10465.546            0   -9570.2173   -8733.2028     794.9212    9.2634912    9.2634912    9.2634912    72.717004 
   13400    305.79485   -10483.712            0   -9573.1071   -29079.936    797.52914    9.2736105    9.2736105    9.2736105    39.702014 
   13500     300.8201   -10469.608            0   -9573.8174   -18128.481    798.31776    9.2766662    9.2766662    9.2766662    43.953931 
   13600    301.22045   -10472.911            0   -9575.9278   -3566.8662    797.42496    9.2732067    9.2732067    9.2732067    40.664041 
   13700    293.49194   -10451.602            0   -9577.6333   -11326.223    795.28851    9.2649178    9.2649178    9.2649178    52.097081 
   13800    311.92477   -10509.089            0   -9580.2298   -15728.754      792.135    9.2526557    9.2526557    9.2526557    61.151324 
   13900    301.18024   -10479.296            0   -9582.4331   -3516.5429    788.20389    9.2373243    9.2373243    9.2373243    46.351755 
   14000    312.72099   -10516.971            0   -9585.7414    8178.2257    783.92906    9.2205945    9.2205945    9.2205945    43.756994 
Loop time of 20.443 on 16 procs for 1000 steps with 1000 atoms

Performance: 4.226 ns/day, 5.679 hours/ns, 48.917 timesteps/s
94.4% CPU use with 16 MPI tasks x no OpenMP threads

MPI task timing breakdown:
Section |  min time  |  avg time  |  max time  |%varavg| %total
---------------------------------------------------------------
Pair    | 1.6015     | 1.6998     | 1.8966     |   5.0 |  8.31
Neigh   | 0.58689    | 0.60503    | 0.68043    |   2.7 |  2.96
Comm    | 0.30964    | 0.58168    | 0.69702    |  11.0 |  2.85
Output  | 11.292     | 11.686     | 17.527     |  44.1 | 57.16
Modify  | 0.021427   | 5.8639     | 6.2577     |  62.3 | 28.68
Other   |            | 0.006851   |            |       |  0.03

Nlocal:    62.5 ave 69 max 56 min
Histogram: 1 1 1 3 1 4 2 1 1 1
Nghost:    1852.38 ave 1872 max 1829 min
Histogram: 1 1 1 3 3 1 2 0 0 4
Neighs:    0 ave 0 max 0 min
Histogram: 16 0 0 0 0 0 0 0 0 0
FullNghs:  18842.1 ave 21032 max 17018 min
Histogram: 2 0 3 1 4 2 1 1 1 1

Total # of neighbors = 301474
Ave neighs/atom = 301.474
Neighbor list builds = 1000
Dangerous builds not checked
Setting up Verlet run ...
  Unit style    : real
  Current step  : 14000
  Time step     : 1
Per MPI rank memory allocation (min/avg/max) = 4.577 | 4.578 | 4.579 Mbytes
Step Temp E_pair E_mol TotEng Press Volume Lx Ly Lz S/CPU 
   14000    312.72099   -10516.971            0   -9585.7414    8178.2257    783.92906    9.2205945    9.2205945    9.2205945            0 
   14100     308.7825    -10508.41            0   -9588.9082    21275.012     780.1628    9.2058045    9.2058045    9.2058045    58.568268 
   14200    308.58824    -10512.26            0   -9593.3374    27216.588    777.70308    9.1961195    9.1961195    9.1961195    38.121182 
   14300    307.82329   -10518.282            0   -9601.6367    14409.131    776.48542    9.1913175    9.1913175    9.1913175    48.505204 
   14400    302.78899   -10511.133            0    -9609.479    12407.165    776.00416    9.1894182    9.1894182    9.1894182    38.151351 
   14500    299.63147   -10513.339            0   -9621.0877    6210.3517    776.44424     9.191155     9.191155     9.191155    59.194962 
   14600    317.30645   -10576.413            0   -9631.5282    4721.8318    777.71824    9.1961793    9.1961793    9.1961793    54.062862 
   14700    303.31426    -10543.68            0   -9640.4615    1329.7494    779.54674    9.2033807    9.2033807    9.2033807    40.946534 
   14800    290.27136   -10512.211            0   -9647.8326    152.75875     781.3922    9.2106375    9.2106375    9.2106375    47.663768 
   14900    298.48119    -10543.56            0   -9654.7338   -7100.9155    782.85673    9.2163883    9.2163883    9.2163883    54.165096 
   15000     295.3616   -10537.986            0   -9658.4494     4813.997    783.67823    9.2196109    9.2196109    9.2196109    38.971871 
Loop time of 21.5049 on 16 procs for 1000 steps with 1000 atoms

Performance: 4.018 ns/day, 5.974 hours/ns, 46.501 timesteps/s
94.4% CPU use with 16 MPI tasks x no OpenMP threads

MPI task timing breakdown:
Section |  min time  |  avg time  |  max time  |%varavg| %total
---------------------------------------------------------------
Pair    | 1.6838     | 1.7584     | 1.8685     |   3.6 |  8.18
Neigh   | 0.59273    | 0.6099     | 0.67191    |   2.4 |  2.84
Comm    | 0.37086    | 0.5432     | 0.63411    |   8.7 |  2.53
Output  | 12.035     | 12.447     | 18.564     |  44.8 | 57.88
Modify  | 0.021592   | 6.1391     | 6.551      |  63.7 | 28.55
Other   |            | 0.006976   |            |       |  0.03

Nlocal:    62.5 ave 70 max 58 min
Histogram: 4 0 4 1 1 3 0 1 1 1
Nghost:    1862.75 ave 1888 max 1837 min
Histogram: 3 2 3 0 0 0 2 0 2 4
Neighs:    0 ave 0 max 0 min
Histogram: 16 0 0 0 0 0 0 0 0 0
FullNghs:  18833.6 ave 21057 max 17407 min
Histogram: 3 1 3 1 4 1 0 1 1 1

Total # of neighbors = 301338
Ave neighs/atom = 301.338
Neighbor list builds = 1000
Dangerous builds not checked
Setting up Verlet run ...
  Unit style    : real
  Current step  : 15000
  Time step     : 1
Per MPI rank memory allocation (min/avg/max) = 4.577 | 4.578 | 4.579 Mbytes
Step Temp E_pair E_mol TotEng Press Volume Lx Ly Lz S/CPU 
   15000     295.3616   -10537.986            0   -9658.4494     4813.997    783.67823    9.2196109    9.2196109    9.2196109            0 
   15100    289.54851   -10521.727            0   -9659.5005    -1673.075     784.1379    9.2214132    9.2214132    9.2214132    53.690917 
   15200    285.90046    -10511.03            0   -9659.6674   -6165.1905    783.94342    9.2206507    9.2206507    9.2206507    57.897201 
   15300    292.69478   -10528.731            0    -9657.136   -7987.2006     783.2348    9.2178717    9.2178717    9.2178717    51.933913 
   15400    284.00667   -10496.979            0   -9651.2552    739.37473    782.25422    9.2140233    9.2140233    9.2140233    62.543979 
   15500    301.88041    -10544.79            0   -9645.8417    7034.5417    781.31273    9.2103253    9.2103253    9.2103253    54.574213 
   15600    294.82619   -10513.849            0   -9635.9071    11364.233    780.93299    9.2088328    9.2088328    9.2088328    39.146203 
   15700     307.6616   -10544.013            0    -9627.849    3854.4639    781.15558    9.2097077    9.2097077    9.2097077    60.276999 
   15800     312.9424   -10552.356            0   -9620.4674    2800.0445      781.894    9.2126087    9.2126087    9.2126087    51.653027 
   15900    301.02028   -10507.728            0   -9611.3411    8886.1518    782.77783    9.2160787    9.2160787    9.2160787    47.973721 
   16000    305.96902   -10517.719            0   -9606.5955    -73.86901    783.76497    9.2199511    9.2199511    9.2199511    54.463536 
Loop time of 19.0166 on 16 procs for 1000 steps with 1000 atoms

Performance: 4.543 ns/day, 5.282 hours/ns, 52.586 timesteps/s
94.5% CPU use with 16 MPI tasks x no OpenMP threads

MPI task timing breakdown:
Section |  min time  |  avg time  |  max time  |%varavg| %total
---------------------------------------------------------------
Pair    | 1.6417     | 1.7471     | 1.925      |   5.1 |  9.19
Neigh   | 0.58716    | 0.61011    | 0.69311    |   3.0 |  3.21
Comm    | 0.3147     | 0.57562    | 0.70574    |  11.7 |  3.03
Output  | 10.835     | 11.165     | 16.054     |  37.8 | 58.71
Modify  | 0.021823   | 4.9117     | 5.2419     |  57.0 | 25.83
Other   |            | 0.00693    |            |       |  0.04

Nlocal:    62.5 ave 69 max 56 min
Histogram: 1 3 0 2 1 2 3 3 0 1
Nghost:    1850.06 ave 1865 max 1838 min
Histogram: 3 2 2 1 2 0 0 2 2 2
Neighs:    0 ave 0 max 0 min
Histogram: 16 0 0 0 0 0 0 0 0 0
FullNghs:  18827.6 ave 21130 max 16754 min
Histogram: 1 3 1 1 1 3 4 1 0 1

Total # of neighbors = 301242
Ave neighs/atom = 301.242
Neighbor list builds = 1000
Dangerous builds not checked
Setting up Verlet run ...
  Unit style    : real
  Current step  : 16000
  Time step     : 1
Per MPI rank memory allocation (min/avg/max) = 4.577 | 4.578 | 4.579 Mbytes
Step Temp E_pair E_mol TotEng Press Volume Lx Ly Lz S/CPU 
   16000    305.96902   -10517.719            0   -9606.5955    -73.86901    783.76497    9.2199511    9.2199511    9.2199511            0 
   16100    293.95042   -10477.199            0   -9601.8646    1910.6829    784.84908    9.2242002    9.2242002    9.2242002    44.295248 
   16200    302.21661   -10498.594            0   -9598.6446    9057.7298    786.31501    9.2299395    9.2299395    9.2299395    42.052454 
   16300    297.08116   -10480.352            0   -9595.6955    3462.1742    788.07731    9.2368298    9.2368298    9.2368298    49.361719 
   16400    316.09082    -10535.98            0   -9594.7156   -14452.182    789.85774    9.2437805    9.2437805    9.2437805    46.843532 
   16500    301.38365   -10489.641            0   -9592.1722    9412.0545    791.39844    9.2497869    9.2497869    9.2497869    45.086434 
   16600    298.68701   -10481.127            0   -9591.6884   -14178.834    792.96537    9.2558876    9.2558876    9.2558876    52.366111 
   16700    306.07447   -10503.644            0   -9592.2066   -5210.2707    794.21826    9.2607599    9.2607599    9.2607599    64.440055 
   16800    289.57692   -10452.836            0   -9590.5254   -7728.1288     795.0556    9.2640132    9.2640132    9.2640132    49.907503 
   16900    295.22795   -10468.892            0   -9589.7535   -15613.608    795.37744    9.2652631    9.2652631    9.2652631     56.82308 
   17000    294.65185   -10465.453            0   -9588.0297   -2021.3811     795.1703    9.2644587    9.2644587    9.2644587    43.958331 
Loop time of 20.5141 on 16 procs for 1000 steps with 1000 atoms

Performance: 4.212 ns/day, 5.698 hours/ns, 48.747 timesteps/s
94.4% CPU use with 16 MPI tasks x no OpenMP threads

MPI task timing breakdown:
Section |  min time  |  avg time  |  max time  |%varavg| %total
---------------------------------------------------------------
Pair    | 1.6042     | 1.7046     | 1.8288     |   3.6 |  8.31
Neigh   | 0.57965    | 0.60509    | 0.66458    |   2.2 |  2.95
Comm    | 0.36633    | 0.55021    | 0.67743    |   8.5 |  2.68
Output  | 11.737     | 12.108     | 17.625     |  40.9 | 59.03
Modify  | 0.021352   | 5.5388     | 5.9105     |  60.5 | 27.00
Other   |            | 0.006883   |            |       |  0.03

Nlocal:    62.5 ave 67 max 58 min
Histogram: 1 0 2 4 0 5 0 2 1 1
Nghost:    1827.19 ave 1854 max 1810 min
Histogram: 3 3 2 2 0 2 1 1 1 1
Neighs:    0 ave 0 max 0 min
Histogram: 16 0 0 0 0 0 0 0 0 0
FullNghs:  18555.4 ave 19941 max 17238 min
Histogram: 1 1 2 3 0 5 0 2 1 1

Total # of neighbors = 296886
Ave neighs/atom = 296.886
Neighbor list builds = 1000
Dangerous builds not checked
Setting up Verlet run ...
  Unit style    : real
  Current step  : 17000
  Time step     : 1
Per MPI rank memory allocation (min/avg/max) = 4.577 | 4.578 | 4.579 Mbytes
Step Temp E_pair E_mol TotEng Press Volume Lx Ly Lz S/CPU 
   17000    294.65185   -10465.453            0   -9588.0297   -2021.3811     795.1703    9.2644587    9.2644587    9.2644587            0 
   17100     305.3249   -10496.242            0   -9587.0365   -1869.2184    794.71409    9.2626866    9.2626866    9.2626866    52.017488 
   17200    309.50465   -10505.095            0   -9583.4429    4958.1355    793.86723    9.2593953    9.2593953    9.2593953    41.643153 
   17300    299.12348   -10470.645            0   -9579.9061   -16356.109    793.26659    9.2570595    9.2570595    9.2570595    35.386293 
   17400    298.90034    -10464.24            0   -9574.1655    6612.7177     792.4526    9.2538921    9.2538921    9.2538921    57.014406 
   17500    297.38498    -10454.28            0   -9568.7178    6427.3591    791.39567    9.2497762    9.2497762    9.2497762    61.401915 
   17600    298.92134   -10453.275            0   -9563.1382   -6680.3953     790.3444    9.2456786    9.2456786    9.2456786    40.627157 
   17700    309.85576   -10477.783            0   -9555.0859   -6957.7145      789.167    9.2410851    9.2410851    9.2410851    50.361996 
   17800    302.83962    -10448.86            0   -9547.0554    16066.558    787.85135    9.2359469    9.2359469    9.2359469    50.783203 
   17900    312.29185   -10468.477            0   -9538.5256    14721.403    786.86124    9.2320763    9.2320763    9.2320763    40.012495 
   18000    309.24706   -10450.087            0   -9529.2021    14418.089    786.52999    9.2307806    9.2307806    9.2307806    57.825092 
Loop time of 21.1771 on 16 procs for 1000 steps with 1000 atoms

Performance: 4.080 ns/day, 5.883 hours/ns, 47.221 timesteps/s
94.4% CPU use with 16 MPI tasks x no OpenMP threads

MPI task timing breakdown:
Section |  min time  |  avg time  |  max time  |%varavg| %total
---------------------------------------------------------------
Pair    | 1.6595     | 1.7066     | 1.8831     |   4.2 |  8.06
Neigh   | 0.59328    | 0.60548    | 0.68253    |   2.6 |  2.86
Comm    | 0.31973    | 0.57296    | 0.63144    |   9.8 |  2.71
Output  | 12.82      | 13.164     | 18.263     |  36.3 | 62.16
Modify  | 0.021352   | 5.1211     | 5.4654     |  58.2 | 24.18
Other   |            | 0.00685    |            |       |  0.03

Nlocal:    62.5 ave 67 max 59 min
Histogram: 1 2 2 5 0 2 1 0 2 1
Nghost:    1865.38 ave 1877 max 1849 min
Histogram: 1 0 0 4 3 0 2 1 4 1
Neighs:    0 ave 0 max 0 min
Histogram: 16 0 0 0 0 0 0 0 0 0
FullNghs:  18771.2 ave 20233 max 17619 min
Histogram: 2 0 2 3 4 1 1 1 1 1

Total # of neighbors = 300340
Ave neighs/atom = 300.34
Neighbor list builds = 1000
Dangerous builds not checked
Setting up Verlet run ...
  Unit style    : real
  Current step  : 18000
  Time step     : 1
Per MPI rank memory allocation (min/avg/max) = 4.577 | 4.578 | 4.579 Mbytes
Step Temp E_pair E_mol TotEng Press Volume Lx Ly Lz S/CPU 
   18000    309.24706   -10450.087            0   -9529.2021    14418.089    786.52999    9.2307806    9.2307806    9.2307806            0 
   18100    307.45087   -10434.949            0   -9519.4123    4345.1033    786.76368    9.2316947    9.2316947    9.2316947    49.640866 
   18200     316.4208   -10452.016            0   -9509.7686    837.68267    787.42532    9.2342818    9.2342818    9.2342818    49.438568 
   18300    315.15711   -10439.795            0   -9501.3112    2446.3831    788.62826    9.2389818    9.2389818    9.2389818    44.072518 
   18400    306.48365     -10406.5            0   -9493.8439   -11142.144    790.26057    9.2453517    9.2453517    9.2453517    44.224973 
   18500    316.16363   -10430.052            0   -9488.5711   -13080.837    791.72245    9.2510491    9.2510491    9.2510491    46.324209 
   18600    310.74271   -10410.134            0   -9484.7952   -12212.578    792.87195    9.2555241    9.2555241    9.2555241    46.960126 
   18700    314.91123    -10422.75            0   -9484.9977   -17550.086    793.16238    9.2566541    9.2566541    9.2566541     50.79279 
   18800    308.39875   -10405.861            0   -9487.5025   -10991.189     792.7181    9.2549255    9.2549255    9.2549255    45.059308 
   18900    310.86175   -10422.399            0   -9496.7058   -3499.1025    792.18253    9.2528407    9.2528407    9.2528407    39.680218 
   19000    310.65028   -10435.022            0   -9509.9585    16125.717      791.403    9.2498047    9.2498047    9.2498047    60.217395 
Loop time of 21.2244 on 16 procs for 1000 steps with 1000 atoms

Performance: 4.071 ns/day, 5.896 hours/ns, 47.116 timesteps/s
94.4% CPU use with 16 MPI tasks x no OpenMP threads

MPI task timing breakdown:
Section |  min time  |  avg time  |  max time  |%varavg| %total
---------------------------------------------------------------
Pair    | 1.6307     | 1.7151     | 1.8534     |   4.1 |  8.08
Neigh   | 0.59116    | 0.60724    | 0.68678    |   2.8 |  2.86
Comm    | 0.35851    | 0.57661    | 0.67658    |   9.5 |  2.72
Output  | 12.522     | 12.887     | 18.296     |  38.9 | 60.72
Modify  | 0.022074   | 5.4314     | 5.7962     |  59.9 | 25.59
Other   |            | 0.006886   |            |       |  0.03

Nlocal:    62.5 ave 67 max 59 min
Histogram: 2 2 2 3 0 2 2 0 1 2
Nghost:    1849 ave 1868 max 1827 min
Histogram: 2 1 1 2 1 3 1 1 0 4
Neighs:    0 ave 0 max 0 min
Histogram: 16 0 0 0 0 0 0 0 0 0
FullNghs:  18652 ave 20122 max 17668 min
Histogram: 4 1 1 3 2 2 0 0 1 2

Total # of neighbors = 298432
Ave neighs/atom = 298.432
Neighbor list builds = 1000
Dangerous builds not checked
Setting up Verlet run ...
  Unit style    : real
  Current step  : 19000
  Time step     : 1
Per MPI rank memory allocation (min/avg/max) = 4.577 | 4.578 | 4.579 Mbytes
Step Temp E_pair E_mol TotEng Press Volume Lx Ly Lz S/CPU 
   19000    310.65028   -10435.022            0   -9509.9585    16125.717      791.403    9.2498047    9.2498047    9.2498047            0 
   19100    311.29147   -10453.298            0   -9526.3253    73.836706    790.63417    9.2468084    9.2468084    9.2468084    36.140735 
   19200    303.13939   -10444.838            0   -9542.1407   -27358.151     789.2445    9.2413877    9.2413877    9.2413877    37.655991 
   19300    301.51513   -10455.007            0   -9557.1466    -5406.903    786.80637    9.2318617    9.2318617    9.2318617    38.676297 
   19400    298.66279   -10457.809            0   -9568.4421   -785.35015    783.70163    9.2197027    9.2197027    9.2197027     48.18643 
   19500    295.58385   -10458.006            0   -9577.8077    17520.244    780.77844    9.2082253    9.2082253    9.2082253    50.009545 
   19600    307.16901    -10500.77            0   -9586.0729    1393.3649    778.49175     9.199227     9.199227     9.199227     49.77379 
   19700    308.82535   -10513.177            0    -9593.548    16471.381     777.0312    9.1934705    9.1934705    9.1934705    47.482046 
   19800    313.47906   -10534.986            0   -9601.4992    7233.4484    776.00448    9.1894195    9.1894195    9.1894195    46.540328 
   19900    303.09312    -10510.46            0   -9607.9002    9559.5758    775.46694    9.1872971    9.1872971    9.1872971    44.490437 
   20000    307.41059   -10529.904            0   -9614.4877   -7931.5285     775.5592    9.1876615    9.1876615    9.1876615    46.551003 
Loop time of 22.7427 on 16 procs for 1000 steps with 1000 atoms

Performance: 3.799 ns/day, 6.317 hours/ns, 43.970 timesteps/s
94.4% CPU use with 16 MPI tasks x no OpenMP threads

MPI task timing breakdown:
Section |  min time  |  avg time  |  max time  |%varavg| %total
---------------------------------------------------------------
Pair    | 1.6783     | 1.751      | 1.9505     |   4.7 |  7.70
Neigh   | 0.59113    | 0.60952    | 0.69375    |   3.0 |  2.68
Comm    | 0.30856    | 0.59227    | 0.68483    |  11.1 |  2.60
Output  | 13.673     | 14.057     | 19.761     |  39.3 | 61.81
Modify  | 0.02155    | 5.7256     | 6.11       |  61.6 | 25.18
Other   |            | 0.006971   |            |       |  0.03

Nlocal:    62.5 ave 67 max 55 min
Histogram: 1 0 0 1 3 1 2 5 1 2
Nghost:    1880.62 ave 1905 max 1862 min
Histogram: 1 2 2 3 3 1 2 1 0 1
Neighs:    0 ave 0 max 0 min
Histogram: 16 0 0 0 0 0 0 0 0 0
FullNghs:  19020.2 ave 20472 max 16585 min
Histogram: 1 0 0 2 2 1 1 6 2 1

Total # of neighbors = 304324
Ave neighs/atom = 304.324
Neighbor list builds = 1000
Dangerous builds not checked
Setting up Verlet run ...
  Unit style    : real
  Current step  : 20000
  Time step     : 1
Per MPI rank memory allocation (min/avg/max) = 4.577 | 4.578 | 4.579 Mbytes
Step Temp E_pair E_mol TotEng Press Volume Lx Ly Lz S/CPU 
   20000    307.41059   -10529.904            0   -9614.4877   -7931.5285     775.5592    9.1876615    9.1876615    9.1876615            0 
   20100    301.30295   -10518.605            0   -9621.3764    12039.202     775.8521    9.1888179    9.1888179    9.1888179    27.734928 
   20200     296.5765   -10509.996            0   -9626.8418    9741.4922    776.69193    9.1921323    9.1921323    9.1921323    50.359545 
   20300    298.25134   -10520.175            0   -9632.0338   -7212.9351    778.12035    9.1977639    9.1977639    9.1977639    47.937871 
   20400    303.24376   -10538.661            0   -9635.6525    21253.707    779.87585    9.2046757    9.2046757    9.2046757      41.2587 
   20500    287.77857   -10495.768            0   -9638.8128    4189.6441    782.35969    9.2144374    9.2144374    9.2144374    63.743124 
   20600    298.88524   -10530.551            0   -9640.5221   -3112.2799    785.03045    9.2249106    9.2249106    9.2249106    33.395004 
   20700      289.843   -10504.765            0   -9641.6623   -15099.233    787.40234     9.234192     9.234192     9.234192    49.338527 
   20800    284.38411   -10487.148            0   -9640.3003   -17732.014    789.25201    9.2414169    9.2414169    9.2414169    52.183457 
   20900    301.41462   -10534.879            0   -9637.3177   -8283.8894    790.28364    9.2454417    9.2454417    9.2454417    38.358461 
   21000    301.77402   -10530.746            0   -9632.1148   -15172.912    790.96364    9.2480927    9.2480927    9.2480927    51.857126 
Loop time of 23.1428 on 16 procs for 1000 steps with 1000 atoms

Performance: 3.733 ns/day, 6.429 hours/ns, 43.210 timesteps/s
94.4% CPU use with 16 MPI tasks x no OpenMP threads

MPI task timing breakdown:
Section |  min time  |  avg time  |  max time  |%varavg| %total
---------------------------------------------------------------
Pair    | 1.6306     | 1.746      | 1.939      |   5.7 |  7.54
Neigh   | 0.58161    | 0.60887    | 0.68546    |   3.0 |  2.63
Comm    | 0.31875    | 0.58829    | 0.73251    |  12.7 |  2.54
Output  | 13.384     | 13.813     | 20.17      |  44.2 | 59.68
Modify  | 0.021476   | 6.3802     | 6.8084     |  65.0 | 27.57
Other   |            | 0.0069     |            |       |  0.03

Nlocal:    62.5 ave 68 max 58 min
Histogram: 2 1 1 3 1 2 2 1 1 2
Nghost:    1840 ave 1865 max 1818 min
Histogram: 1 0 4 2 2 2 3 1 0 1
Neighs:    0 ave 0 max 0 min
Histogram: 16 0 0 0 0 0 0 0 0 0
FullNghs:  18659.6 ave 20151 max 17056 min
Histogram: 2 0 2 2 1 3 2 2 0 2

Total # of neighbors = 298554
Ave neighs/atom = 298.554
Neighbor list builds = 1000
Dangerous builds not checked
Setting up Verlet run ...
  Unit style    : real
  Current step  : 21000
  Time step     : 1
Per MPI rank memory allocation (min/avg/max) = 4.577 | 4.578 | 4.579 Mbytes
Step Temp E_pair E_mol TotEng Press Volume Lx Ly Lz S/CPU 
   21000    301.77402   -10530.746            0   -9632.1148   -15172.912    790.96364    9.2480927    9.2480927    9.2480927            0 
   21100    300.35815   -10517.553            0   -9623.1372   -23267.459    790.82935    9.2475693    9.2475693    9.2475693    45.016498 
   21200    294.98527     -10491.3            0   -9612.8846   -20508.604    789.45405    9.2422055    9.2422055    9.2422055    51.945923 
   21300    304.56697   -10507.586            0   -9600.6377    -13784.87    787.03507    9.2327561    9.2327561    9.2327561    46.922567 
   21400    290.52935   -10452.344            0   -9587.1975    3334.6805    784.09277    9.2212363    9.2212363    9.2212363     40.71032 
   21500    308.67578   -10495.676            0   -9576.4919    5091.3975    781.16466    9.2097434    9.2097434    9.2097434    51.732194 
   21600    305.39518   -10476.591            0   -9567.1767    18814.402    778.52123    9.1993432    9.1993432    9.1993432    47.322583 
   21700    306.14042   -10472.952            0   -9561.3181    6967.3689    776.37272    9.1908728    9.1908728    9.1908728    50.275639 
   21800    301.53425   -10456.551            0   -9558.6338     25328.91    775.05041    9.1856519    9.1856519    9.1856519    42.317452 
   21900    314.53139   -10495.564            0   -9558.9432    10038.177    774.79909    9.1846589    9.1846589    9.1846589     36.80429 
   22000    313.94285   -10494.915            0   -9560.0467     8780.522    775.68389    9.1881538    9.1881538    9.1881538    44.164307 
Loop time of 22.1137 on 16 procs for 1000 steps with 1000 atoms

Performance: 3.907 ns/day, 6.143 hours/ns, 45.221 timesteps/s
94.4% CPU use with 16 MPI tasks x no OpenMP threads

MPI task timing breakdown:
Section |  min time  |  avg time  |  max time  |%varavg| %total
---------------------------------------------------------------
Pair    | 1.6446     | 1.7481     | 1.893      |   4.7 |  7.91
Neigh   | 0.58387    | 0.60927    | 0.67668    |   2.6 |  2.76
Comm    | 0.35102    | 0.56346    | 0.69163    |  10.8 |  2.55
Output  | 13.251     | 13.625     | 19.164     |  38.7 | 61.61
Modify  | 0.021475   | 5.5612     | 5.9346     |  60.7 | 25.15
Other   |            | 0.006911   |            |       |  0.03

Nlocal:    62.5 ave 67 max 57 min
Histogram: 1 1 1 1 4 0 1 2 1 4
Nghost:    1873.31 ave 1892 max 1847 min
Histogram: 1 0 2 2 2 0 2 2 4 1
Neighs:    0 ave 0 max 0 min
Histogram: 16 0 0 0 0 0 0 0 0 0
FullNghs:  19037.1 ave 20604 max 17152 min
Histogram: 1 2 0 4 1 0 2 2 0 4

Total # of neighbors = 304594
Ave neighs/atom = 304.594
Neighbor list builds = 1000
Dangerous builds not checked
Setting up Verlet run ...
  Unit style    : real
  Current step  : 22000
  Time step     : 1
Per MPI rank memory allocation (min/avg/max) = 4.577 | 4.578 | 4.579 Mbytes
Step Temp E_pair E_mol TotEng Press Volume Lx Ly Lz S/CPU 
   22000    313.94285   -10494.915            0   -9560.0467     8780.522    775.68389    9.1881538    9.1881538    9.1881538            0 
   22100    306.80431   -10476.404            0   -9562.7936    4150.2619    777.11998    9.1938206    9.1938206    9.1938206    40.207263 
   22200    291.93867   -10435.867            0   -9566.5237    3909.3372    778.71075    9.2000896    9.2000896    9.2000896     56.28634 
   22300    294.63483   -10447.577            0   -9570.2043    3421.9226    780.40793    9.2067685    9.2067685    9.2067685    47.516751 
   22400    301.13144   -10472.703            0   -9575.9851   -2906.7661    781.92053    9.2127129    9.2127129    9.2127129    58.559991 
   22500    313.80682    -10514.67            0   -9580.2068   -2413.5884    783.28358     9.218063     9.218063     9.218063    50.331613 
   22600    297.83103   -10469.287            0   -9582.3966   -5949.5898    784.49889    9.2228281    9.2228281    9.2228281    37.797966 
   22700    300.98716   -10482.711            0   -9586.4225   -4472.1912     785.3197    9.2260435    9.2260435    9.2260435     59.70849 
   22800    302.42524   -10489.598            0   -9589.0275    6357.3546     785.8541    9.2281357    9.2281357    9.2281357    42.913799 
   22900    302.62869   -10494.727            0   -9593.5507   -9308.8881    786.36427    9.2301322    9.2301322    9.2301322    63.826019 
   23000    304.35057   -10503.261            0   -9596.9571   -2776.7658    786.63483    9.2311907    9.2311907    9.2311907    51.634319 
Loop time of 20.2169 on 16 procs for 1000 steps with 1000 atoms

Performance: 4.274 ns/day, 5.616 hours/ns, 49.463 timesteps/s
94.4% CPU use with 16 MPI tasks x no OpenMP threads

MPI task timing breakdown:
Section |  min time  |  avg time  |  max time  |%varavg| %total
---------------------------------------------------------------
Pair    | 1.6596     | 1.7483     | 1.9449     |   5.2 |  8.65
Neigh   | 0.58934    | 0.6088     | 0.69178    |   2.9 |  3.01
Comm    | 0.30518    | 0.58458    | 0.69186    |  11.6 |  2.89
Output  | 11.443     | 11.809     | 17.246     |  40.8 | 58.41
Modify  | 0.021519   | 5.4592     | 5.8259     |  60.1 | 27.00
Other   |            | 0.00696    |            |       |  0.03

Nlocal:    62.5 ave 68 max 55 min
Histogram: 2 1 0 1 2 1 4 1 2 2
Nghost:    1855.31 ave 1878 max 1829 min
Histogram: 1 0 3 0 2 3 3 2 1 1
Neighs:    0 ave 0 max 0 min
Histogram: 16 0 0 0 0 0 0 0 0 0
FullNghs:  18767.4 ave 20554 max 16669 min
Histogram: 2 1 0 2 1 3 1 2 2 2

Total # of neighbors = 300278
Ave neighs/atom = 300.278
Neighbor list builds = 1000
Dangerous builds not checked
Setting up Verlet run ...
  Unit style    : real
  Current step  : 23000
  Time step     : 1
Per MPI rank memory allocation (min/avg/max) = 4.577 | 4.578 | 4.579 Mbytes
Step Temp E_pair E_mol TotEng Press Volume Lx Ly Lz S/CPU 
   23000    304.35057   -10503.261            0   -9596.9571   -2776.7658    786.63483    9.2311907    9.2311907    9.2311907            0 
   23100    296.78283   -10485.334            0   -9601.5654    1960.3162    786.62761    9.2311625    9.2311625    9.2311625     47.20342 
   23200    299.70939   -10499.517            0   -9607.0339   -11852.481    786.31093    9.2299236    9.2299236    9.2299236    55.485279 
   23300    296.05819   -10493.837            0    -9612.226   -8526.1635    785.63556    9.2272802    9.2272802    9.2272802    45.989294 
   23400    289.57311   -10480.109            0     -9617.81   -8177.9492    784.95539    9.2246166    9.2246166    9.2246166    48.798394 
   23500    295.39424   -10502.815            0   -9623.1809    859.76852    783.75169     9.219899     9.219899     9.219899    50.531831 
   23600    298.33012   -10516.757            0   -9628.3804   -17323.622    782.46406    9.2148471    9.2148471    9.2148471    55.758759 
   23700    289.57548   -10495.434            0   -9633.1277    9338.4266    780.77065    9.2081947    9.2081947    9.2081947    48.128115 
   23800    303.60117   -10543.235            0   -9639.1622    7489.0658    779.10719    9.2016506    9.2016506    9.2016506    56.201514 
   23900    297.29637   -10530.663            0   -9645.3654    8166.8934    777.78174    9.1964295    9.1964295    9.1964295    49.643238 
   24000     294.2611    -10531.48            0   -9655.2211   -1552.5514    776.83512    9.1926971    9.1926971    9.1926971    56.907217 
Loop time of 19.5456 on 16 procs for 1000 steps with 1000 atoms

Performance: 4.420 ns/day, 5.429 hours/ns, 51.162 timesteps/s
94.4% CPU use with 16 MPI tasks x no OpenMP threads

MPI task timing breakdown:
Section |  min time  |  avg time  |  max time  |%varavg| %total
---------------------------------------------------------------
Pair    | 1.6265     | 1.7443     | 1.9293     |   5.5 |  8.92
Neigh   | 0.58301    | 0.60966    | 0.69347    |   3.0 |  3.12
Comm    | 0.34385    | 0.61274    | 0.7587     |  12.0 |  3.13
Output  | 11.257     | 11.591     | 16.549     |  37.6 | 59.30
Modify  | 0.02176    | 4.9808     | 5.3152     |  57.4 | 25.48
Other   |            | 0.006963   |            |       |  0.04

Nlocal:    62.5 ave 70 max 57 min
Histogram: 1 1 2 5 2 3 0 0 0 2
Nghost:    1864.81 ave 1876 max 1846 min
Histogram: 1 0 2 1 0 1 3 2 5 1
Neighs:    0 ave 0 max 0 min
Histogram: 16 0 0 0 0 0 0 0 0 0
FullNghs:  18998.8 ave 21259 max 17415 min
Histogram: 1 3 3 2 2 3 0 0 0 2

Total # of neighbors = 303980
Ave neighs/atom = 303.98
Neighbor list builds = 1000
Dangerous builds not checked
Setting up Verlet run ...
  Unit style    : real
  Current step  : 24000
  Time step     : 1
Per MPI rank memory allocation (min/avg/max) = 4.577 | 4.578 | 4.579 Mbytes
Step Temp E_pair E_mol TotEng Press Volume Lx Ly Lz S/CPU 
   24000     294.2611    -10531.48            0   -9655.2211   -1552.5514    776.83512    9.1926971    9.1926971    9.1926971            0 
   24100    287.84092   -10528.132            0   -9670.9913    11860.646    776.28521    9.1905275    9.1905275    9.1905275    43.733706 
   24200    290.60327   -10554.831            0   -9689.4637    22643.371    776.07777    9.1897087    9.1897087    9.1897087    42.030074 
   24300    288.23611   -10562.874            0    -9704.556   -4832.4135    776.42566    9.1910817    9.1910817    9.1910817    47.223804 
   24400    273.66795   -10530.108            0   -9715.1715    6944.6102    777.10165    9.1937483    9.1937483    9.1937483    60.354479 
   24500    283.97326    -10566.13            0   -9720.5061    -4726.603    778.05627    9.1975114    9.1975114    9.1975114    36.299165 
   24600    281.47589   -10558.763            0   -9720.5754   -9423.5197    779.15109    9.2018234    9.2018234    9.2018234    43.406678 
   24700    292.38658   -10588.496            0   -9717.8184   -2382.0975    780.28488    9.2062846    9.2062846    9.2062846    50.486396 
   24800    283.31417   -10554.219            0   -9710.5574   -3361.6404    781.40936    9.2107049    9.2107049    9.2107049    47.559968 
   24900     282.1725   -10541.232            0   -9700.9701   -7383.9725    782.52091    9.2150703    9.2150703    9.2150703    46.819625 
   25000    293.55514   -10563.335            0   -9689.1776   -4645.6822    783.18443    9.2176741    9.2176741    9.2176741     59.78524 
Loop time of 21.3908 on 16 procs for 1000 steps with 1000 atoms

Performance: 4.039 ns/day, 5.942 hours/ns, 46.749 timesteps/s
94.4% CPU use with 16 MPI tasks x no OpenMP threads

MPI task timing breakdown:
Section |  min time  |  avg time  |  max time  |%varavg| %total
---------------------------------------------------------------
Pair    | 1.6309     | 1.7613     | 2.0576     |   6.9 |  8.23
Neigh   | 0.58289    | 0.61076    | 0.7036     |   3.3 |  2.86
Comm    | 0.25685    | 0.64568    | 0.80292    |  14.5 |  3.02
Output  | 12.512     | 12.881     | 18.343     |  39.3 | 60.22
Modify  | 0.021546   | 5.4856     | 5.8544     |  60.2 | 25.64
Other   |            | 0.006932   |            |       |  0.03

Nlocal:    62.5 ave 66 max 58 min
Histogram: 1 2 0 0 0 4 3 4 1 1
Nghost:    1866.5 ave 1880 max 1854 min
Histogram: 2 1 1 2 1 2 3 3 0 1
Neighs:    0 ave 0 max 0 min
Histogram: 16 0 0 0 0 0 0 0 0 0
FullNghs:  18847.1 ave 19973 max 17540 min
Histogram: 2 1 0 0 2 3 6 0 1 1

Total # of neighbors = 301554
Ave neighs/atom = 301.554
Neighbor list builds = 1000
Dangerous builds not checked
Setting up Verlet run ...
  Unit style    : real
  Current step  : 25000
  Time step     : 1
Per MPI rank memory allocation (min/avg/max) = 4.577 | 4.578 | 4.579 Mbytes
Step Temp E_pair E_mol TotEng Press Volume Lx Ly Lz S/CPU 
   25000    293.55514   -10563.335            0   -9689.1776   -4645.6822    783.18443    9.2176741    9.2176741    9.2176741            0 
   25100    290.10922   -10542.026            0   -9678.1305   -10583.136    783.29466    9.2181065    9.2181065    9.2181065    43.299261 
   25200    297.96143   -10554.329            0   -9667.0503    5045.2875    782.90252     9.216568     9.216568     9.216568     51.11518 
   25300    288.32877   -10514.081            0   -9655.4868   -5823.4093    782.80361    9.2161798    9.2161798    9.2161798    46.471207 
   25400     293.1261   -10520.506            0   -9647.6261   -7145.3469    782.69351    9.2157477    9.2157477    9.2157477    46.848945 
   25500    302.75157   -10541.774            0    -9640.231    -2980.475    782.89031    9.2165201    9.2165201    9.2165201    54.800684 
   25600    297.22706   -10518.876            0   -9633.7844   -969.51285    783.18052    9.2176587    9.2176587    9.2176587    53.514358 
   25700    295.51957   -10506.743            0   -9626.7365   -14133.317    783.41964    9.2185968    9.2185968    9.2185968    44.093766 
   25800     292.7774   -10491.389            0    -9619.548   -339.92383    783.43345    9.2186509    9.2186509    9.2186509    44.439956 
   25900    304.42789   -10521.937            0   -9615.4031   -6744.5704    783.40664    9.2185458    9.2185458    9.2185458    40.585965 
   26000    297.29095   -10493.121            0   -9607.8393    3849.2284    782.95208    9.2167625    9.2167625    9.2167625    49.235276 
Loop time of 21.2588 on 16 procs for 1000 steps with 1000 atoms

Performance: 4.064 ns/day, 5.905 hours/ns, 47.039 timesteps/s
94.4% CPU use with 16 MPI tasks x no OpenMP threads

MPI task timing breakdown:
Section |  min time  |  avg time  |  max time  |%varavg| %total
---------------------------------------------------------------
Pair    | 1.6588     | 1.7453     | 1.9972     |   6.0 |  8.21
Neigh   | 0.58716    | 0.61095    | 0.71136    |   3.5 |  2.87
Comm    | 0.31387    | 0.666      | 0.77509    |  12.8 |  3.13
Output  | 12.232     | 12.609     | 18.207     |  40.7 | 59.31
Modify  | 0.021889   | 5.6204     | 5.9978     |  61.0 | 26.44
Other   |            | 0.006974   |            |       |  0.03

Nlocal:    62.5 ave 69 max 57 min
Histogram: 1 2 3 1 2 2 0 3 1 1
Nghost:    1867.25 ave 1882 max 1856 min
Histogram: 3 1 0 4 2 1 1 2 1 1
Neighs:    0 ave 0 max 0 min
Histogram: 16 0 0 0 0 0 0 0 0 0
FullNghs:  18847.4 ave 20807 max 17259 min
Histogram: 1 3 2 3 0 2 0 3 1 1

Total # of neighbors = 301558
Ave neighs/atom = 301.558
Neighbor list builds = 1000
Dangerous builds not checked
Setting up Verlet run ...
  Unit style    : real
  Current step  : 26000
  Time step     : 1
Per MPI rank memory allocation (min/avg/max) = 4.577 | 4.578 | 4.579 Mbytes
Step Temp E_pair E_mol TotEng Press Volume Lx Ly Lz S/CPU 
   26000    297.29095   -10493.121            0   -9607.8393    3849.2284    782.95208    9.2167625    9.2167625    9.2167625            0 
   26100    307.21914   -10517.548            0   -9602.7023    5868.0192    782.08649    9.2133647    9.2133647    9.2133647    65.863569 
   26200    306.47605   -10510.458            0   -9597.8242    5250.5853    780.94719    9.2088887    9.2088887    9.2088887    39.671362 
   26300    287.75208   -10448.298            0   -9591.4211    4858.3983    779.86144     9.204619     9.204619     9.204619    56.420461 
   26400    309.68657   -10510.111            0   -9587.9172    19501.601    779.61359    9.2036438    9.2036438    9.2036438    50.067553 
   26500    298.63153   -10472.106            0   -9582.8324    17561.841     780.2625    9.2061966    9.2061966    9.2061966    51.423832 
   26600    296.91501   -10464.392            0   -9580.2299    12483.677     781.8755    9.2125361    9.2125361    9.2125361      56.1565 
   26700    301.13083   -10473.747            0   -9577.0304    17465.166    784.25237    9.2218619    9.2218619    9.2218619    59.741321 
   26800    315.63787   -10514.289            0   -9574.3735   -1873.7031    787.15842    9.2332384    9.2332384    9.2332384    48.944848 
   26900    302.76718   -10473.115            0   -9571.5264   -5255.9432    789.90308    9.2439574    9.2439574    9.2439574     51.00819 
   27000    302.69663   -10470.562            0   -9569.1828   -16788.368     792.3977    9.2536784    9.2536784    9.2536784     51.29754 
Loop time of 19.161 on 16 procs for 1000 steps with 1000 atoms

Performance: 4.509 ns/day, 5.322 hours/ns, 52.189 timesteps/s
94.5% CPU use with 16 MPI tasks x no OpenMP threads

MPI task timing breakdown:
Section |  min time  |  avg time  |  max time  |%varavg| %total
---------------------------------------------------------------
Pair    | 1.6501     | 1.745      | 2.0006     |   5.7 |  9.11
Neigh   | 0.5847     | 0.60953    | 0.69833    |   3.1 |  3.18
Comm    | 0.28008    | 0.62404    | 0.74516    |  12.5 |  3.26
Output  | 11.068     | 11.39      | 16.152     |  36.4 | 59.45
Modify  | 0.021758   | 4.7852     | 5.1074     |  56.2 | 24.97
Other   |            | 0.006956   |            |       |  0.04

Nlocal:    62.5 ave 66 max 57 min
Histogram: 1 1 1 0 1 1 5 4 0 2
Nghost:    1845.62 ave 1860 max 1830 min
Histogram: 1 0 2 2 1 3 4 1 0 2
Neighs:    0 ave 0 max 0 min
Histogram: 16 0 0 0 0 0 0 0 0 0
FullNghs:  18617.5 ave 19817 max 16857 min
Histogram: 1 1 1 0 1 1 5 4 0 2

Total # of neighbors = 297880
Ave neighs/atom = 297.88
Neighbor list builds = 1000
Dangerous builds not checked
Setting up Verlet run ...
  Unit style    : real
  Current step  : 27000
  Time step     : 1
Per MPI rank memory allocation (min/avg/max) = 4.577 | 4.578 | 4.579 Mbytes
Step Temp E_pair E_mol TotEng Press Volume Lx Ly Lz S/CPU 
   27000    302.69663   -10470.562            0   -9569.1828   -16788.368     792.3977    9.2536784    9.2536784    9.2536784            0 
   27100     306.4752   -10481.846            0    -9569.215   -2070.1036      794.303    9.2610892    9.2610892    9.2610892    40.647079 
   27200    306.62786   -10481.087            0   -9568.0016   -4230.0318    795.55434    9.2659499    9.2659499    9.2659499    51.956812 
   27300    310.35551   -10491.815            0   -9567.6297   -14712.359    796.15226    9.2682707    9.2682707    9.2682707      53.9375 
   27400    303.98339   -10471.235            0   -9566.0243   -21808.788    795.74326    9.2666833    9.2666833    9.2666833    51.080887 
   27500    301.64137   -10463.913            0   -9565.6761   -11156.603    794.29048    9.2610406    9.2610406    9.2610406    55.657658 
   27600    303.95342   -10470.559            0   -9565.4376    1349.1885    792.22478    9.2530052    9.2530052    9.2530052     60.99108 
   27700    307.20577    -10481.48            0   -9566.6739   -8769.3938    789.81183    9.2436014    9.2436014    9.2436014    49.978629 
   27800    297.20216   -10453.331            0   -9568.3139     4832.048    787.09713    9.2329987    9.2329987    9.2329987    61.358377 
   27900    307.91619    -10488.22            0   -9571.2978    8948.3674    784.42584    9.2225418    9.2225418    9.2225418    53.002329 
   28000    293.95548   -10448.498            0   -9573.1488    896.74331    782.47703     9.214898     9.214898     9.214898    33.439179 
Loop time of 20.1407 on 16 procs for 1000 steps with 1000 atoms

[...]
  637700    307.43449   -11363.923            0   -10448.436    10865.173    726.48273    8.9896289    8.9896289    8.9896289    59.371326 
  637800    303.14603   -11350.376            0   -10447.659    7867.2958    726.14236    8.9882248    8.9882248    8.9882248    56.633694 
  637900    307.27177   -11363.527            0   -10448.524   -101.72352    725.92931    8.9873456    8.9873456    8.9873456    50.382217 
  638000    303.93424   -11355.139            0   -10450.074    11122.836    726.05217    8.9878526    8.9878526    8.9878526    35.568447 
  638100    302.03799   -11353.218            0     -10453.8   -2450.6994    726.62279    8.9902066    8.9902066    8.9902066    49.951244 
  638200    304.21528   -11363.256            0   -10457.355    9153.1371    727.01714    8.9918327    8.9918327    8.9918327     61.87226 
  638300    293.63008   -11335.119            0   -10460.738    3829.9877     727.4785    8.9937343    8.9937343    8.9937343    45.472635 
  638400    295.80423   -11346.558            0   -10465.704   -11475.866    727.87783    8.9953797    8.9953797    8.9953797    61.482095 
  638500    294.39778   -11346.649            0   -10469.982    900.97745    728.13331     8.996432     8.996432     8.996432    54.045331 
  638600    301.06008   -11372.566            0   -10476.061   -13276.663    728.18126    8.9966294    8.9966294    8.9966294    54.709365 
  638700     297.8556   -11367.582            0   -10480.618    354.60153    727.86444    8.9953245    8.9953245    8.9953245    58.399365 
  638800    292.78625   -11358.533            0   -10486.666   -2191.6389    727.21341    8.9926418    8.9926418    8.9926418    51.823086 
  638900    304.33463   -11401.746            0   -10495.489   -4955.7939    726.29266    8.9888448    8.9888448    8.9888448    46.771887 
  639000    298.25018   -11390.919            0   -10502.781   -5071.1805    725.41106    8.9852064    8.9852064    8.9852064    58.070739 
  639100     295.8762    -11392.77            0   -10511.701   -697.60355    724.55457    8.9816688    8.9816688    8.9816688    58.888117 
  639200    296.46173   -11404.351            0   -10521.539    14233.002    723.81011    8.9785916    8.9785916    8.9785916    36.385504 
  639300    297.10291   -11415.232            0    -10530.51    5908.6231    723.29571    8.9764641    8.9764641    8.9764641    55.257384 
  639400    285.60928    -11387.72            0   -10537.224     4041.645    723.07326    8.9755437    8.9755437    8.9755437    49.692053 
  639500    290.52508    -11408.87            0   -10543.736     10828.23    723.20487    8.9760882    8.9760882    8.9760882    47.914348 
  639600    295.45431   -11428.878            0   -10549.065    6377.0354    723.85752    8.9787876    8.9787876    8.9787876    56.862006 
  639700     289.7631   -11414.096            0   -10551.231   -17055.334    724.88917    8.9830511    8.9830511    8.9830511    59.091211 
  639800    293.79431   -11425.986            0   -10551.117   -10388.308    725.59118      8.98595      8.98595      8.98595    43.274357 
  639900    288.48362   -11407.323            0   -10548.268   -1776.0981    726.06005    8.9878851    8.9878851    8.9878851    58.633172 
  640000    276.27929   -11363.122            0    -10540.41   -2114.3359    726.31626    8.9889422    8.9889422    8.9889422     50.26928 
  640100    285.39734   -11379.472            0   -10529.608    8183.2231     726.2191    8.9885414    8.9885414    8.9885414    58.518812 
  640200    293.03255   -11388.446            0   -10515.845   -5677.9741    726.06447    8.9879034    8.9879034    8.9879034    55.074942 
  640300    304.68902   -11406.727            0   -10499.415    931.32444    725.86018    8.9870603    8.9870603    8.9870603    46.981695 
  640400    297.43541   -11369.415            0   -10483.703    -6292.536    725.88609    8.9871673    8.9871673    8.9871673    50.366458 
  640500    307.33268     -11390.3            0   -10475.116    4321.2825    725.87245     8.987111     8.987111     8.987111     52.65248 
  640600    303.82228   -11372.658            0   -10467.928   -1670.3838    726.11213       8.9881       8.9881       8.9881    39.952741 
  640700    300.95813    -11359.41            0   -10463.208    5309.0819    726.62014    8.9901957    8.9901957    8.9901957    49.486998 
  640800    305.80159   -11371.521            0   -10460.896   -11143.392    727.19788    8.9925777    8.9925777    8.9925777    60.288907 
  640900    315.13267   -11397.423            0   -10459.012    9135.4289    727.72767     8.994761     8.994761     8.994761    48.201254 
  641000    306.70304   -11369.382            0   -10456.073   -486.69366    728.47458    8.9978373    8.9978373    8.9978373    56.533264 
  641100    293.08702   -11324.885            0   -10452.121    -6333.665    729.06413    9.0002639    9.0002639    9.0002639    42.299716 
  641200    302.87971   -11354.462            0   -10452.538   -17634.714     729.3319    9.0013656    9.0013656    9.0013656    56.940232 
  641300    314.46012   -11387.903            0   -10451.495   -13638.219     728.9302    8.9997127    8.9997127    8.9997127    47.638766 
  641400      308.244   -11367.606            0   -10449.708    3776.6917    727.89841    8.9954644    8.9954644    8.9954644    48.100839 
  641500    312.54676   -11379.812            0   -10449.101    5060.5415    726.66657    8.9903872    8.9903872    8.9903872    35.811314 
  641600       303.25   -11351.697            0   -10448.671    21524.154    725.60886     8.986023     8.986023     8.986023     44.10912 
  641700    309.37371   -11370.793            0   -10449.531    12420.797    724.91532    8.9831591    8.9831591    8.9831591    55.082594 
  641800    296.96188   -11336.943            0   -10452.641     4246.937    724.67472    8.9821652    8.9821652    8.9821652    39.944894 
  641900    298.37381     -11344.4            0   -10455.894    16515.472    725.12234    8.9840142    8.9840142    8.9840142    49.644763 
  642000    310.65456   -11387.409            0   -10462.333    428.59741    725.99477    8.9876158    8.9876158    8.9876158    38.160763 
  642100    296.50566   -11350.125            0   -10467.182   -7904.5905    726.91916    8.9914287    8.9914287    8.9914287    39.886459 
  642200    301.01264   -11372.208            0   -10475.844   -10755.392    727.58048    8.9941546    8.9941546    8.9941546    55.018248 
  642300    293.19696   -11357.094            0   -10484.003    5898.7523    728.00925     8.995921     8.995921     8.995921     46.88537 
  642400    299.96785    -11387.55            0   -10494.297   -18423.999    728.34855    8.9973183    8.9973183    8.9973183     49.14688 
  642500    291.60029   -11372.507            0   -10504.171   -13060.088    727.96484     8.995738     8.995738     8.995738    54.507686 
  642600    289.70669   -11375.622            0   -10512.925   -3934.4053    727.06446    8.9920277    8.9920277    8.9920277    51.836109 
  642700    292.34125   -11391.216            0   -10520.673   -5701.3877    725.66979    8.9862745    8.9862745    8.9862745    38.991374 
  642800    286.22789   -11377.119            0   -10524.781    15954.528    724.10291    8.9798021    8.9798021    8.9798021    53.452961 
  642900    296.26711   -11410.016            0   -10527.783    19163.066    722.92339    8.9749236    8.9749236    8.9749236    56.762947 
  643000     285.2024   -11377.762            0   -10528.478     16881.98    722.47507    8.9730679    8.9730679    8.9730679    53.591699 
  643100    303.24146   -11433.003            0   -10530.002     12511.03    722.80204    8.9744214    8.9744214    8.9744214    55.349378 
  643200    290.89661   -11394.112            0   -10527.872    6231.2665    723.86562    8.9788211    8.9788211    8.9788211    41.648366 
  643300    289.42285   -11385.086            0   -10523.234   -5753.3567    725.42476     8.985263     8.985263     8.985263    49.877988 
  643400    286.68529   -11369.864            0   -10516.165    -14176.98    727.04087    8.9919305    8.9919305    8.9919305    51.735989 
  643500    294.89043   -11383.845            0   -10505.712    205.30267    728.20449    8.9967251    8.9967251    8.9967251    41.048246 
  643600    296.73577   -11373.391            0   -10489.763   -9747.3482    728.89872    8.9995832    8.9995832    8.9995832     56.19923 
  643700    299.07263   -11362.213            0   -10471.626   -13143.527     728.9991    8.9999963    8.9999963    8.9999963    58.377034 
  643800    302.40107   -11356.756            0   -10456.258    2548.4754    728.52677    8.9980521    8.9980521    8.9980521    48.474952 
  643900    308.58725   -11364.345            0   -10445.425   -14724.013    727.70442    8.9946652    8.9946652    8.9946652    57.402611 
  644000    297.47144   -11324.214            0   -10438.395    1091.3883     726.7525    8.9907415    8.9907415    8.9907415    51.653831 
  644100    312.57011   -11365.483            0   -10434.703    13616.644    726.21876      8.98854      8.98854      8.98854     44.66234 
  644200    307.86167   -11348.712            0   -10431.953    14292.689    726.34919    8.9890781    8.9890781    8.9890781    50.009121 
  644300    297.97985   -11318.442            0   -10431.109    8625.7821    727.10507    8.9921952    8.9921952    8.9921952    39.803892 
  644400    313.11905   -11364.627            0   -10432.212     12036.49    728.39601    8.9975138    8.9975138    8.9975138    50.601142 
  644500    289.85294   -11294.677            0   -10431.544   -5632.7464    729.92947    9.0038234    9.0038234    9.0038234    54.720684 
  644600    294.35582   -11309.386            0   -10432.844   -1430.8073    731.13098    9.0087609    9.0087609    9.0087609    47.734206 
  644700    303.29219   -11338.637            0   -10435.485   -26986.982    731.85744    9.0117437    9.0117437    9.0117437    52.738044 
  644800    302.15232   -11337.787            0   -10438.029   -17853.099    731.27845    9.0093666    9.0093666    9.0093666    50.961027 
  644900     303.6984   -11347.192            0    -10442.83   -15077.595    729.55558    9.0022857    9.0022857    9.0022857    35.103304 
  645000    301.68033   -11344.704            0   -10446.352    5762.1936    727.05774    8.9920001    8.9920001    8.9920001     54.16486 
  645100    300.82473   -11347.509            0   -10451.705    36784.577    724.74086    8.9824384    8.9824384    8.9824384    41.819379 
  645200    307.09666   -11372.458            0   -10457.976     20626.28    723.46627    8.9771696    8.9771696    8.9771696    41.653039 
  645300    296.03772   -11346.528            0   -10464.978    5643.9051    723.27821    8.9763916    8.9763916    8.9763916    36.683598 
  645400    293.25794   -11348.533            0   -10475.261     15018.16    723.96348    8.9792256    8.9792256    8.9792256     48.60949 
  645500    304.36398   -11391.634            0    -10485.29    1959.1186    725.45767    8.9853988    8.9853988    8.9853988    55.151647 
  645600    301.24736   -11393.229            0   -10496.165   -3657.7601    727.18617    8.9925295    8.9925295    8.9925295    47.064463 
  645700    311.65271   -11432.335            0   -10504.286    -16640.29    728.95316    8.9998072    8.9998072    8.9998072    56.191412 
  645800    291.89942   -11379.345            0   -10510.119   -9064.5115    730.23634    9.0050849    9.0050849    9.0050849    44.181849 
  645900     294.6331   -11394.086            0   -10516.719   -9392.7926    730.62943    9.0067005    9.0067005    9.0067005    54.110371 
  646000    291.82227   -11389.598            0   -10520.601   -4734.5965    730.21787     9.005009     9.005009     9.005009    57.684439 
  646100    296.66103   -11406.392            0   -10522.986   -21242.956    729.03765    9.0001549    9.0001549    9.0001549    44.666658 
  646200      294.934    -11401.03            0   -10522.767   -213.80056    727.01603    8.9918281    8.9918281    8.9918281    53.761123 
  646300    293.09681   -11392.703            0    -10519.91    9644.5573    724.93155    8.9832262    8.9832262    8.9832262    54.007576 
  646400    297.02582   -11400.423            0   -10515.931    10841.473    723.29457    8.9764593    8.9764593    8.9764593    45.647518 
  646500    298.53668   -11397.873            0   -10508.881    24059.506    722.47241    8.9730569    8.9730569    8.9730569    54.147341 
  646600     296.7435    -11379.19            0   -10495.539    24101.796    722.94871    8.9750283    8.9750283    8.9750283    45.769571 
  646700    301.54106   -11375.111            0   -10477.173    3287.9819    724.31167    8.9806649    8.9806649    8.9806649    49.261364 
  646800    298.48578   -11345.557            0   -10456.717    10936.489    726.38974    8.9892454    8.9892454    8.9892454    47.902195 
  646900    298.93989   -11330.832            0    -10440.64   -681.70949    728.74346    8.9989442    8.9989442    8.9989442    55.385534 
  647000    315.02134   -11370.052            0   -10431.973   -18657.579    730.71937      9.00707      9.00707      9.00707    55.449387 
  647100     306.9778   -11339.837            0    -10425.71   -16297.308    731.67754    9.0110052    9.0110052    9.0110052    44.657421 
  647200    289.07706    -11282.23            0   -10421.408     -7502.49    731.43157    9.0099953    9.0099953    9.0099953    57.499175 
  647300    321.03292   -11375.184            0   -10419.203    3081.0385    730.30463    9.0053657    9.0053657    9.0053657    47.181816 
  647400    299.89082   -11310.813            0   -10417.789     4984.178    728.61846    8.9984296    8.9984296    8.9984296    51.759776 
  647500    295.12059   -11296.568            0   -10417.749    12752.514    726.52072    8.9897856    8.9897856    8.9897856    54.255838 
  647600    316.05164   -11361.965            0   -10420.818    8989.3465    724.56735    8.9817215    8.9817215    8.9817215    47.169343 
  647700    312.99069    -11356.91            0   -10424.877    11437.044    722.94927    8.9750307    8.9750307    8.9750307    50.016619 
  647800    309.69489   -11354.871            0   -10432.653    15762.113    721.98811    8.9710515    8.9710515    8.9710515    52.671607 
  647900    310.36986   -11365.588            0   -10441.359     26235.61    721.89191     8.970653     8.970653     8.970653    34.997096 
  648000     307.0534   -11367.592            0   -10453.239    8088.5295    722.92237    8.9749194    8.9749194    8.9749194    48.359234 
  648100    291.09587   -11330.708            0   -10463.874    8791.5743    724.86002    8.9829307    8.9829307    8.9829307     55.68958 
  648200    292.50208   -11345.226            0   -10474.205    4270.4203    726.97973    8.9916785    8.9916785    8.9916785    54.630994 
  648300    308.23729   -11401.236            0   -10483.358   -13170.413    728.98698    8.9999464    8.9999464    8.9999464    52.799081 
  648400    299.50019   -11381.552            0   -10489.692   -13352.061    730.65018    9.0067857    9.0067857    9.0067857    48.314109 
  648500     294.2369   -11368.944            0   -10492.756   -15966.633    731.38106     9.009788     9.009788     9.009788    49.702648 
  648600    295.25788   -11373.927            0     -10494.7   -12226.574    730.74684    9.0071829    9.0071829    9.0071829    53.911091 
  648700    293.80773   -11371.009            0   -10496.099   -9254.7368    729.01559    9.0000642    9.0000642    9.0000642    57.782803 
  648800    289.29513   -11356.579            0   -10495.107   -6015.9393    726.44584    8.9894768    8.9894768    8.9894768    32.331278 
  648900     306.1937   -11408.299            0   -10496.507    9054.4893    723.56933    8.9775958    8.9775958    8.9775958    53.763556 
  649000    299.91768   -11387.749            0   -10494.645    13919.055    721.13509     8.967517     8.967517     8.967517     37.94654 
  649100    309.24164   -11415.257            0   -10494.388     25388.71    719.78449    8.9619151    8.9619151    8.9619151    56.621714 
  649200     292.3589   -11362.021            0   -10491.426    20440.832    719.92147    8.9624836    8.9624836    8.9624836    58.573528 
  649300    298.29476   -11379.212            0   -10490.941    17665.314    721.64157    8.9696159    8.9696159    8.9696159    43.319468 
  649400    294.20192   -11364.003            0    -10487.92    11621.584    724.58149      8.98178      8.98178      8.98178     46.73533 
  649500    295.54165   -11363.199            0   -10483.126   -13972.798    728.29246    8.9970874    8.9970874    8.9970874    52.693311 
  649600     294.5109   -11351.423            0    -10474.42   -27562.173    731.39791    9.0098571    9.0098571    9.0098571    42.411684 
  649700    293.51226   -11335.323            0   -10461.294   -35144.355    733.08985    9.0167993    9.0167993    9.0167993    55.954995 
  649800    296.40659   -11328.898            0    -10446.25   -36060.628    733.04167    9.0166017    9.0166017    9.0166017    50.546732 
  649900     300.0131   -11323.249            0   -10429.862   -24290.367    731.17353    9.0089357    9.0089357    9.0089357    45.567122 
  650000    313.36733   -11349.444            0   -10416.289   -13353.594    728.19578    8.9966893    8.9966893    8.9966893    52.629949 
  650100    307.13368   -11320.771            0   -10406.179   -211.66132    724.74637    8.9824612    8.9824612    8.9824612    49.970613 
  650200    315.14356    -11339.62            0   -10401.177    13259.209    721.75273    8.9700765    8.9700765    8.9700765    46.909632 
  650300    300.56964   -11293.878            0   -10398.833    34656.326    720.24074    8.9638083    8.9638083    8.9638083    52.104527 
  650400    309.17877   -11322.563            0   -10401.881    29578.273    720.45848    8.9647115    8.9647115    8.9647115    41.997262 
  650500    314.47965   -11343.458            0   -10406.991    29084.386    722.23451    8.9720719    8.9720719    8.9720719    47.454545 
  650600    301.05475   -11308.885            0   -10412.395     10484.58    725.17779    8.9842432    8.9842432    8.9842432     53.97899 
  650700    296.87804   -11300.794            0   -10416.742    165.28515    728.60665     8.998381     8.998381     8.998381    57.683347 
  650800    300.07011   -11316.613            0   -10423.055    -23792.38    731.66844    9.0109679    9.0109679    9.0109679    35.977327 
  650900    301.62014   -11326.803            0    -10428.63   -16677.245    733.61554     9.018954     9.018954     9.018954    59.426306 
  651000    310.28016   -11357.137            0   -10433.175    -20174.91    734.22911    9.0214677    9.0214677    9.0214677    48.992651 
Loop time of 2062.25 on 16 procs for 100000 steps with 1000 atoms

Performance: 4.190 ns/day, 5.728 hours/ns, 48.491 timesteps/s
94.7% CPU use with 16 MPI tasks x no OpenMP threads

MPI task timing breakdown:
Section |  min time  |  avg time  |  max time  |%varavg| %total
---------------------------------------------------------------
Pair    | 227.27     | 249.73     | 271.21     |  85.5 | 12.11
Neigh   | 75.217     | 82.989     | 90.85      |  51.7 |  4.02
Comm    | 86.246     | 112.65     | 141.05     | 168.9 |  5.46
Output  | 1073.3     | 1107.3     | 1609.3     | 389.5 | 53.69
Modify  | 6.536      | 508.65     | 542.68     | 574.8 | 24.66
Other   |            | 0.9539     |            |       |  0.05

Nlocal:    62.5 ave 70 max 55 min
Histogram: 3 0 3 0 1 1 2 1 2 3
Nghost:    1944.31 ave 1961 max 1932 min
Histogram: 1 2 3 1 3 2 3 0 0 1
Neighs:    0 ave 0 max 0 min
Histogram: 16 0 0 0 0 0 0 0 0 0
FullNghs:  20036.5 ave 22339 max 17550 min
Histogram: 3 0 3 0 1 1 2 1 2 3

Total # of neighbors = 320584
Ave neighs/atom = 320.584
Neighbor list builds = 100000
Dangerous builds not checked
Total wall time: 3:36:52
