LAMMPS (16 Mar 2018)
Reading data file ...
  orthogonal box = (-4.74055 -4.74055 -4.74055) to (4.74055 4.74055 4.74055)
  2 by 2 by 4 MPI processor grid
  reading atoms ...
  1000 atoms
Reading potential file /home/fs01/ajm529/lammps-16Mar18/potentials/sw_potentials/AG/eps2.23.sw with DATE: 2008-01-29
Neighbor list info ...
  update every 1 steps, delay 0 steps, check no
  max neighbors/atom: 2000, page size: 100000
  master list distance cutoff = 3.836
  ghost atom cutoff = 3.836
  binsize = 1.918, bins = 5 5 5
  1 neighbor lists, perpetual/occasional/extra = 1 0 0
  (1) pair sw, perpetual
      attributes: full, newton on
      pair build: full/bin/atomonly
      stencil: full/bin/3d
      bin: standard
Setting up Verlet run ...
  Unit style    : real
  Current step  : 0
  Time step     : 1
Per MPI rank memory allocation (min/avg/max) = 3.518 | 3.585 | 4.577 Mbytes
Step Temp E_pair E_mol TotEng Press Volume Lx Ly Lz S/CPU 
       0          300   -10060.934            0   -9167.5853   -28953.444    852.26842    9.4811016    9.4811016    9.4811016            0 
     100    330.57869    -10158.85            0   -9174.4429   -56542.018    850.13484    9.4731832    9.4731832    9.4731832    56.644756 
     200      336.351    -10194.38            0    -9192.784   -48709.643    843.39543     9.448084     9.448084     9.448084     37.51356 
     300    335.69016   -10218.474            0   -9218.8463   -36802.885    832.86432    9.4085945    9.4085945    9.4085945     51.20847 
     400    332.33775   -10232.688            0   -9243.0432   -15502.439    820.77034    9.3628317    9.3628317    9.3628317    34.449266 
     500    328.85878   -10242.538            0    -9263.253   -10391.562    809.37976    9.3193176    9.3193176    9.3193176    55.137723 
     600    335.60717   -10280.324            0   -9280.9433   -1690.9622    799.73526    9.2821535    9.2821535    9.2821535    45.132691 
     700    320.58057   -10251.149            0   -9296.5151    17303.774    792.58167    9.2543945    9.2543945    9.2543945    34.662336 
     800     339.3318   -10327.546            0    -9317.074    3638.2331    788.06039    9.2367637    9.2367637    9.2367637    49.810053 
     900    328.94081   -10319.769            0   -9340.2394    15997.952     785.2441    9.2257474    9.2257474    9.2257474    49.917904 
    1000    333.36098   -10356.337            0   -9363.6445    22130.809    784.23953    9.2218115    9.2218115    9.2218115    45.119662 
Loop time of 22.4283 on 16 procs for 1000 steps with 1000 atoms

Performance: 3.852 ns/day, 6.230 hours/ns, 44.587 timesteps/s
94.6% CPU use with 16 MPI tasks x no OpenMP threads

MPI task timing breakdown:
Section |  min time  |  avg time  |  max time  |%varavg| %total
---------------------------------------------------------------
Pair    | 2.1903     | 2.312      | 2.4527     |   5.1 | 10.31
Neigh   | 0.7742     | 0.80584    | 0.85492    |   2.9 |  3.59
Comm    | 0.73965    | 0.94242    | 1.081      |  10.5 |  4.20
Output  | 12.366     | 12.74      | 18.29      |  40.2 | 56.80
Modify  | 0.08208    | 5.6199     | 6.0025     |  60.3 | 25.06
Other   |            | 0.008351   |            |       |  0.04

Nlocal:    62.5 ave 68 max 58 min
Histogram: 1 2 4 0 0 2 3 1 1 2
Nghost:    1870 ave 1888 max 1851 min
Histogram: 1 1 1 2 1 5 1 2 1 1
Neighs:    0 ave 0 max 0 min
Histogram: 16 0 0 0 0 0 0 0 0 0
FullNghs:  18839.4 ave 20491 max 17381 min
Histogram: 2 1 4 0 0 3 2 2 0 2

Total # of neighbors = 301430
Ave neighs/atom = 301.43
Neighbor list builds = 1000
Dangerous builds not checked
Setting up Verlet run ...
  Unit style    : real
  Current step  : 1000
  Time step     : 1
Per MPI rank memory allocation (min/avg/max) = 3.769 | 4.376 | 4.579 Mbytes
Step Temp E_pair E_mol TotEng Press Volume Lx Ly Lz S/CPU 
    1000    333.36098   -10356.337            0   -9363.6445    22130.809    784.23953    9.2218115    9.2218115    9.2218115            0 
    1100    316.73993   -10329.412            0   -9386.2143    14952.753    784.57924    9.2231429    9.2231429    9.2231429    51.872798 
    1200    321.28136   -10365.118            0   -9408.3966    13866.608    785.79903    9.2279202    9.2279202    9.2279202    53.961276 
    1300    333.08841   -10422.345            0   -9430.4643    12371.558    787.48464    9.2345137    9.2345137    9.2345137    40.659024 
    1400    316.17387   -10391.784            0   -9450.2723   -2964.3503    789.47477    9.2422863    9.2422863    9.2422863    46.066576 
    1500    314.05974   -10405.062            0   -9469.8458    3945.6249    791.72289    9.2510508    9.2510508    9.2510508    42.615886 
    1600    306.41373   -10400.915            0    -9488.467   -24886.997    793.92486    9.2596194    9.2596194    9.2596194    44.085073 
    1700    314.71574   -10443.391            0   -9506.2208   -1563.2424    795.07208    9.2640772    9.2640772    9.2640772    56.859605 
    1800    313.06743   -10454.972            0    -9522.711    -16622.94    795.46849    9.2656166    9.2656166    9.2656166    41.599644 
    1900    297.13324   -10422.646            0   -9537.8336   -8770.6928    795.04297    9.2639642    9.2639642    9.2639642    43.115209 
    2000    305.36666   -10462.184            0   -9552.8545   -47.954469    793.65406    9.2585665    9.2585665    9.2585665     46.06899 
Loop time of 21.6787 on 16 procs for 1000 steps with 1000 atoms

Performance: 3.985 ns/day, 6.022 hours/ns, 46.128 timesteps/s
94.6% CPU use with 16 MPI tasks x no OpenMP threads

MPI task timing breakdown:
Section |  min time  |  avg time  |  max time  |%varavg| %total
---------------------------------------------------------------
Pair    | 2.2775     | 2.4378     | 2.6045     |   5.1 | 11.25
Neigh   | 0.786      | 0.81298    | 0.84904    |   1.6 |  3.75
Comm    | 0.77364    | 0.97573    | 1.1628     |   9.3 |  4.50
Output  | 11.675     | 12.035     | 17.382     |  39.8 | 55.51
Modify  | 0.061164   | 5.4093     | 5.7696     |  59.4 | 24.95
Other   |            | 0.008393   |            |       |  0.04

Nlocal:    62.5 ave 67 max 56 min
Histogram: 2 1 1 0 0 3 2 2 1 4
Nghost:    1847.75 ave 1859 max 1837 min
Histogram: 3 0 1 1 1 4 2 1 2 1
Neighs:    0 ave 0 max 0 min
Histogram: 16 0 0 0 0 0 0 0 0 0
FullNghs:  18595.6 ave 19974 max 16544 min
Histogram: 2 0 1 1 0 3 3 1 2 3

Total # of neighbors = 297530
Ave neighs/atom = 297.53
Neighbor list builds = 1000
Dangerous builds not checked
Setting up Verlet run ...
  Unit style    : real
  Current step  : 2000
  Time step     : 1
Per MPI rank memory allocation (min/avg/max) = 4.578 | 4.578 | 4.579 Mbytes
Step Temp E_pair E_mol TotEng Press Volume Lx Ly Lz S/CPU 
    2000    305.36666   -10462.184            0   -9552.8545   -47.954469    793.65406    9.2585665    9.2585665    9.2585665            0 
    2100    294.73593   -10445.206            0   -9567.5328   -11149.439     791.7975    9.2513414    9.2513414    9.2513414    26.120231 
    2200    295.90192   -10461.738            0   -9580.5922   -7190.9182    789.36438    9.2418555    9.2418555    9.2418555      51.8029 
    2300    305.43468   -10503.362            0   -9593.8294   -3530.0017    786.40731    9.2303007    9.2303007    9.2303007    48.656256 
    2400    296.26406   -10487.971            0   -9605.7469    3731.0254    783.09826     9.217336     9.217336     9.217336    36.675893 
    2500     294.6144   -10492.373            0   -9615.0616    9513.7485    780.01322    9.2052161    9.2052161    9.2052161    44.033149 
    2600    299.16611   -10516.852            0   -9625.9864    14004.472     777.5741    9.1956111    9.1956111    9.1956111    50.682762 
    2700    289.32923   -10495.435            0   -9633.8622    12797.835    776.12066    9.1898781    9.1898781    9.1898781    44.873924 
    2800    299.85618   -10535.298            0   -9642.3772    13921.326     775.5701    9.1877045    9.1877045    9.1877045     53.64833 
    2900    299.09025   -10541.065            0   -9650.4256    20057.631    775.77138    9.1884993    9.1884993    9.1884993    37.655384 
    3000    290.91894   -10524.123            0   -9657.8159   -3103.5624    776.92158    9.1930381    9.1930381    9.1930381    55.125558 
Loop time of 23.3469 on 16 procs for 1000 steps with 1000 atoms

Performance: 3.701 ns/day, 6.485 hours/ns, 42.832 timesteps/s
94.6% CPU use with 16 MPI tasks x no OpenMP threads

MPI task timing breakdown:
Section |  min time  |  avg time  |  max time  |%varavg| %total
---------------------------------------------------------------
Pair    | 2.3731     | 2.4797     | 2.6053     |   4.4 | 10.62
Neigh   | 0.79405    | 0.81645    | 0.84899    |   2.0 |  3.50
Comm    | 0.81101    | 0.97104    | 1.0862     |   8.6 |  4.16
Output  | 13.088     | 13.462     | 19.017     |  39.1 | 57.66
Modify  | 0.055898   | 5.6092     | 5.983      |  60.5 | 24.03
Other   |            | 0.008445   |            |       |  0.04

Nlocal:    62.5 ave 68 max 57 min
Histogram: 3 0 0 2 0 6 2 0 2 1
Nghost:    1862.88 ave 1891 max 1845 min
Histogram: 3 3 2 1 2 0 1 2 1 1
Neighs:    0 ave 0 max 0 min
Histogram: 16 0 0 0 0 0 0 0 0 0
FullNghs:  19005.2 ave 20766 max 17138 min
Histogram: 2 1 0 1 1 7 1 0 2 1

Total # of neighbors = 304084
Ave neighs/atom = 304.084
Neighbor list builds = 1000
Dangerous builds not checked
Setting up Verlet run ...
  Unit style    : real
  Current step  : 3000
  Time step     : 1
Per MPI rank memory allocation (min/avg/max) = 4.578 | 4.578 | 4.579 Mbytes
Step Temp E_pair E_mol TotEng Press Volume Lx Ly Lz S/CPU 
    3000    290.91894   -10524.123            0   -9657.8159   -3103.5624    776.92158    9.1930381    9.1930381    9.1930381            0 
    3100    281.21904   -10501.219            0   -9663.7971   -4897.9077     778.4882    9.1992131    9.1992131    9.1992131    51.387588 
    3200     289.0453   -10529.666            0   -9668.9387    4289.2964    780.37997    9.2066586    9.2066586    9.2066586    33.685281 
    3300    290.40779   -10536.594            0   -9671.8091    345.69368    782.27754    9.2141148    9.2141148    9.2141148    48.228682 
    3400    294.54245   -10548.095            0   -9670.9981   -6186.6907    784.05676    9.2210951    9.2210951    9.2210951    44.547683 
    3500    290.63998   -10535.129            0   -9669.6532   -21354.304    785.30803    9.2259978    9.2259978    9.2259978    37.940703 
    3600    296.71176   -10549.253            0   -9665.6958    1446.3497    785.91182    9.2283617    9.2283617    9.2283617    48.418703 
    3700    300.16786   -10555.207            0    -9661.358   -8917.4359    786.21637    9.2295535    9.2295535    9.2295535    45.508373 
    3800     295.9201   -10536.064            0   -9654.8644    -2324.817    785.99351    9.2286814    9.2286814    9.2286814    26.555571 
    3900    293.64455   -10521.875            0   -9647.4517    7683.7853    785.33631    9.2261085    9.2261085    9.2261085    46.194356 
    4000    288.71752   -10498.746            0   -9638.9947   -11724.613    784.59987    9.2232237    9.2232237    9.2232237    33.850931 
Loop time of 25.0159 on 16 procs for 1000 steps with 1000 atoms

Performance: 3.454 ns/day, 6.949 hours/ns, 39.975 timesteps/s
94.5% CPU use with 16 MPI tasks x no OpenMP threads

MPI task timing breakdown:
Section |  min time  |  avg time  |  max time  |%varavg| %total
---------------------------------------------------------------
Pair    | 2.3379     | 2.4878     | 2.6885     |   5.9 |  9.94
Neigh   | 0.78209    | 0.81967    | 0.86624    |   2.1 |  3.28
Comm    | 0.71891    | 0.97239    | 1.1604     |  11.3 |  3.89
Output  | 13.77      | 14.202     | 20.637     |  44.1 | 56.77
Modify  | 0.096356   | 6.5254     | 6.9573     |  65.0 | 26.09
Other   |            | 0.008437   |            |       |  0.03

Nlocal:    62.5 ave 67 max 59 min
Histogram: 2 1 2 3 0 3 2 2 0 1
Nghost:    1863.31 ave 1880 max 1849 min
Histogram: 2 4 0 3 0 0 2 0 4 1
Neighs:    0 ave 0 max 0 min
Histogram: 16 0 0 0 0 0 0 0 0 0
FullNghs:  18812.4 ave 20169 max 17709 min
Histogram: 2 1 1 4 0 4 1 2 0 1

Total # of neighbors = 300998
Ave neighs/atom = 300.998
Neighbor list builds = 1000
Dangerous builds not checked
Setting up Verlet run ...
  Unit style    : real
  Current step  : 4000
  Time step     : 1
Per MPI rank memory allocation (min/avg/max) = 4.578 | 4.578 | 4.579 Mbytes
Step Temp E_pair E_mol TotEng Press Volume Lx Ly Lz S/CPU 
    4000    288.71752   -10498.746            0   -9638.9947   -11724.613    784.59987    9.2232237    9.2232237    9.2232237            0 
    4100    302.13869   -10528.165            0   -9628.4472   -9363.0339    783.72386    9.2197899    9.2197899    9.2197899    49.049672 
    4200    307.01863   -10533.387            0   -9619.1381    9208.6394    782.51599     9.215051     9.215051     9.215051    31.921754 
    4300    299.87133   -10503.165            0   -9610.1995    8584.0125    781.18776    9.2098342    9.2098342    9.2098342    50.995745 
    4400    310.66046   -10527.238            0   -9602.1437    6608.9193    780.19588    9.2059346    9.2059346    9.2059346    47.422523 
    4500    308.94932   -10514.051            0   -9594.0529    18178.327    779.67009    9.2038661    9.2038661    9.2038661    41.022417 
    4600    304.56061   -10495.866            0   -9588.9363    387.17143    780.04936    9.2053582    9.2053582    9.2053582    44.923518 
    4700    311.25025   -10512.338            0   -9585.4878    16118.468    781.21255    9.2099316    9.2099316    9.2099316    34.354637 
    4800    300.20496   -10474.953            0   -9580.9942   -15208.023    782.86228    9.2164101    9.2164101    9.2164101    44.561947 
    4900    290.79277   -10442.337            0   -9576.4058     10004.91    784.00406    9.2208885    9.2208885    9.2208885    47.054165 
    5000    296.80312   -10456.668            0   -9572.8392   -4847.6163    785.24942    9.2257683    9.2257683    9.2257683     43.37377 
Loop time of 23.4904 on 16 procs for 1000 steps with 1000 atoms

Performance: 3.678 ns/day, 6.525 hours/ns, 42.571 timesteps/s
94.6% CPU use with 16 MPI tasks x no OpenMP threads

MPI task timing breakdown:
Section |  min time  |  avg time  |  max time  |%varavg| %total
---------------------------------------------------------------
Pair    | 2.2924     | 2.5459     | 2.716      |   7.3 | 10.84
Neigh   | 0.77335    | 0.82949    | 0.86452    |   2.8 |  3.53
Comm    | 0.74259    | 0.94728    | 1.257      |  14.2 |  4.03
Output  | 12.545     | 12.957     | 19.082     |  43.9 | 55.16
Modify  | 0.076608   | 6.2023     | 6.6139     |  63.5 | 26.40
Other   |            | 0.008502   |            |       |  0.04

Nlocal:    62.5 ave 66 max 55 min
Histogram: 1 1 0 1 0 0 4 1 3 5
Nghost:    1846.62 ave 1862 max 1831 min
Histogram: 3 1 1 1 2 1 1 3 1 2
Neighs:    0 ave 0 max 0 min
Histogram: 16 0 0 0 0 0 0 0 0 0
FullNghs:  18779.8 ave 19945 max 16458 min
Histogram: 1 1 0 1 0 2 3 0 6 2

Total # of neighbors = 300476
Ave neighs/atom = 300.476
Neighbor list builds = 1000
Dangerous builds not checked
Setting up Verlet run ...
  Unit style    : real
  Current step  : 5000
  Time step     : 1
Per MPI rank memory allocation (min/avg/max) = 4.578 | 4.578 | 4.579 Mbytes
Step Temp E_pair E_mol TotEng Press Volume Lx Ly Lz S/CPU 
    5000    296.80312   -10456.668            0   -9572.8392   -4847.6163    785.24942    9.2257683    9.2257683    9.2257683            0 
    5100    313.46922   -10503.533            0   -9570.0748   -4085.2599    786.51521    9.2307228    9.2307228    9.2307228    45.167739 
    5200    303.72999   -10470.951            0   -9566.4948   -13011.602    787.50928      9.23461      9.23461      9.23461    52.720738 
    5300    301.50834   -10461.083            0   -9563.2427   -4602.8931     788.3099    9.2377384    9.2377384    9.2377384    43.104705 
    5400    301.41953   -10458.451            0   -9560.8748   -3140.0386    788.93917    9.2401958    9.2401958    9.2401958    45.703531 
    5500    305.87358   -10469.843            0    -9559.004   -11767.709    789.49949    9.2423828    9.2423828    9.2423828    43.322583 
    5600    307.44378   -10471.859            0   -9556.3442   -433.37045    789.76217    9.2434077    9.2434077    9.2434077    38.468475 
    5700    293.92579   -10425.983            0   -9550.7223    -5291.465    789.79927    9.2435524    9.2435524    9.2435524    43.946487 
    5800    303.87085   -10451.856            0   -9546.9809   -21270.088    789.35552    9.2418209    9.2418209    9.2418209    42.581221 
    5900    315.37175   -10481.797            0   -9542.6734    1084.9527    788.27198    9.2375903    9.2375903    9.2375903    40.095948 
    6000    307.43432   -10451.632            0   -9536.1449     7000.671    787.24276    9.2335681    9.2335681    9.2335681     41.49866 
Loop time of 23.0542 on 16 procs for 1000 steps with 1000 atoms

Performance: 3.748 ns/day, 6.404 hours/ns, 43.376 timesteps/s
94.6% CPU use with 16 MPI tasks x no OpenMP threads

MPI task timing breakdown:
Section |  min time  |  avg time  |  max time  |%varavg| %total
---------------------------------------------------------------
Pair    | 2.3508     | 2.4645     | 2.6463     |   4.9 | 10.69
Neigh   | 0.77584    | 0.81825    | 0.84868    |   2.1 |  3.55
Comm    | 0.74586    | 0.95799    | 1.1022     |   9.5 |  4.16
Output  | 12.214     | 12.627     | 18.761     |  44.6 | 54.77
Modify  | 0.044276   | 6.1783     | 6.5907     |  63.7 | 26.80
Other   |            | 0.00842    |            |       |  0.04

Nlocal:    62.5 ave 66 max 56 min
Histogram: 1 0 0 1 1 1 4 2 2 4
Nghost:    1863.25 ave 1881 max 1844 min
Histogram: 1 1 3 2 1 1 2 2 1 2
Neighs:    0 ave 0 max 0 min
Histogram: 16 0 0 0 0 0 0 0 0 0
FullNghs:  18743.1 ave 20019 max 16587 min
Histogram: 1 0 0 2 0 4 2 3 3 1

Total # of neighbors = 299890
Ave neighs/atom = 299.89
Neighbor list builds = 1000
Dangerous builds not checked
Setting up Verlet run ...
  Unit style    : real
  Current step  : 6000
  Time step     : 1
Per MPI rank memory allocation (min/avg/max) = 4.578 | 4.578 | 4.579 Mbytes
Step Temp E_pair E_mol TotEng Press Volume Lx Ly Lz S/CPU 
    6000    307.43432   -10451.632            0   -9536.1449     7000.671    787.24276    9.2335681    9.2335681    9.2335681            0 
    6100    305.10114   -10438.315            0   -9529.7762    12982.723      786.246    9.2296695    9.2296695    9.2296695    37.886055 
    6200    325.31979   -10492.738            0   -9523.9909     1796.273    785.33816    9.2261158    9.2261158    9.2261158     41.00504 
    6300    309.65139   -10439.258            0   -9517.1692    987.19827    784.63044    9.2233435    9.2233435    9.2233435     49.46645 
    6400     313.1698   -10446.294            0    -9513.728    4369.7681    784.29802    9.2220408    9.2220408    9.2220408    37.176795 
    6500    308.52157   -10429.777            0   -9511.0522    7343.5902      784.549    9.2230244    9.2230244    9.2230244    49.094887 
    6600    307.76114   -10426.222            0   -9509.7623    8330.0704    785.34309    9.2261351    9.2261351    9.2261351    41.359024 
    6700    302.66427   -10408.734            0   -9507.4514    11416.685    786.33449    9.2300157    9.2300157    9.2300157    38.195174 
    6800    304.23202   -10414.511            0   -9508.5596    8315.8964    787.55282    9.2347802    9.2347802    9.2347802    53.191292 
    6900    302.26083   -10411.722            0   -9511.6408    -16570.79    788.88209    9.2399729    9.2399729    9.2399729     37.30907 
    7000    320.53139   -10473.919            0   -9519.4312   -19287.127    789.42471     9.242091     9.242091     9.242091    47.727814 
Loop time of 23.5181 on 16 procs for 1000 steps with 1000 atoms

Performance: 3.674 ns/day, 6.533 hours/ns, 42.521 timesteps/s
94.6% CPU use with 16 MPI tasks x no OpenMP threads

MPI task timing breakdown:
Section |  min time  |  avg time  |  max time  |%varavg| %total
---------------------------------------------------------------
Pair    | 2.3711     | 2.4835     | 2.5973     |   4.3 | 10.56
Neigh   | 0.79392    | 0.81998    | 0.8489     |   1.7 |  3.49
Comm    | 0.86191    | 0.99734    | 1.1292     |   8.0 |  4.24
Output  | 12.755     | 13.158     | 19.134     |  42.5 | 55.95
Modify  | 0.074401   | 6.0509     | 6.4591     |  62.7 | 25.73
Other   |            | 0.008437   |            |       |  0.04

Nlocal:    62.5 ave 67 max 58 min
Histogram: 2 0 1 1 4 3 1 3 0 1
Nghost:    1841.69 ave 1867 max 1821 min
Histogram: 3 5 0 0 0 1 1 2 3 1
Neighs:    0 ave 0 max 0 min
Histogram: 16 0 0 0 0 0 0 0 0 0
FullNghs:  18672.4 ave 20320 max 17018 min
Histogram: 2 0 1 3 2 4 0 1 2 1

Total # of neighbors = 298758
Ave neighs/atom = 298.758
Neighbor list builds = 1000
Dangerous builds not checked
Setting up Verlet run ...
  Unit style    : real
  Current step  : 7000
  Time step     : 1
Per MPI rank memory allocation (min/avg/max) = 4.578 | 4.578 | 4.579 Mbytes
Step Temp E_pair E_mol TotEng Press Volume Lx Ly Lz S/CPU 
    7000    320.53139   -10473.919            0   -9519.4312   -19287.127    789.42471     9.242091     9.242091     9.242091            0 
    7100    301.98383   -10428.113            0   -9528.8566   -18630.643    789.15252    9.2410286    9.2410286    9.2410286    39.865041 
    7200    314.14516   -10478.844            0   -9543.3729   -19134.719    788.41766    9.2381593    9.2381593    9.2381593    35.449253 
    7300    302.62006   -10457.953            0   -9556.8023   -6053.3909    787.42738    9.2342899    9.2342899    9.2342899    48.383554 
    7400    302.02729   -10469.633            0   -9570.2474   -342.43637    786.18544    9.2294325    9.2294325    9.2294325    46.487135 
    7500    303.90534   -10485.428            0   -9580.4496   -7531.5132    784.85105    9.2242079    9.2242079    9.2242079    37.628617 
    7600    306.58284   -10502.197            0   -9589.2459   -394.63566    783.01562    9.2170118    9.2170118    9.2170118    44.556812 
    7700    300.74082    -10491.16            0   -9595.6049    4959.8476    781.05119    9.2092974    9.2092974    9.2092974    38.255171 
    7800    300.43723    -10495.79            0   -9601.1397    20595.744    779.70504    9.2040036    9.2040036    9.2040036    48.819563 
    7900    291.47417   -10472.187            0   -9604.2266    2934.3334    779.19136    9.2019819    9.2019819    9.2019819     41.35141 
    8000    294.37934   -10485.619            0   -9609.0076   -3515.1263    778.94873    9.2010267    9.2010267    9.2010267    29.797915 
Loop time of 24.8859 on 16 procs for 1000 steps with 1000 atoms

Performance: 3.472 ns/day, 6.913 hours/ns, 40.183 timesteps/s
94.5% CPU use with 16 MPI tasks x no OpenMP threads

MPI task timing breakdown:
Section |  min time  |  avg time  |  max time  |%varavg| %total
---------------------------------------------------------------
Pair    | 2.3867     | 2.4822     | 2.5872     |   3.7 |  9.97
Neigh   | 0.78423    | 0.81802    | 0.86519    |   2.0 |  3.29
Comm    | 0.80957    | 0.94789    | 1.0638     |   7.2 |  3.81
Output  | 14.445     | 14.83      | 20.526     |  38.2 | 59.59
Modify  | 0.089442   | 5.7991     | 6.1879     |  61.2 | 23.30
Other   |            | 0.008439   |            |       |  0.03

Nlocal:    62.5 ave 66 max 58 min
Histogram: 2 1 2 1 0 2 1 2 1 4
Nghost:    1873.38 ave 1896 max 1856 min
Histogram: 3 0 1 4 1 2 2 0 2 1
Neighs:    0 ave 0 max 0 min
Histogram: 16 0 0 0 0 0 0 0 0 0
FullNghs:  18936.5 ave 20204 max 17505 min
Histogram: 2 2 1 1 1 2 1 1 2 3

Total # of neighbors = 302984
Ave neighs/atom = 302.984
Neighbor list builds = 1000
Dangerous builds not checked
Setting up Verlet run ...
  Unit style    : real
  Current step  : 8000
  Time step     : 1
Per MPI rank memory allocation (min/avg/max) = 4.578 | 4.578 | 4.579 Mbytes
Step Temp E_pair E_mol TotEng Press Volume Lx Ly Lz S/CPU 
    8000    294.37934   -10485.619            0   -9609.0076   -3515.1263    778.94873    9.2010267    9.2010267    9.2010267            0 
    8100    295.40672   -10490.023            0   -9610.3523      8303.23     778.9189    9.2009092    9.2009092    9.2009092    48.089127 
    8200    298.73328   -10503.475            0   -9613.8978    18912.196    779.95327    9.2049803    9.2049803    9.2049803    46.397192 
    8300    295.07519   -10494.307            0    -9615.623   -5514.8837    781.76678    9.2121091    9.2121091    9.2121091    40.688432 
    8400    287.04444    -10470.34            0    -9615.571   -606.83224    783.62084    9.2193859    9.2193859    9.2193859    45.383128 
    8500    299.36211    -10505.82            0   -9614.3707     -2979.65    785.32472    9.2260631    9.2260631    9.2260631    46.116308 
    8600    291.65069   -10479.936            0   -9611.4503   -3039.3774    786.77315    9.2317318    9.2317318    9.2317318    38.062424 
    8700    290.83566   -10471.843            0   -9605.7842   -4352.0907    787.96969    9.2364093    9.2364093    9.2364093    48.970145 
    8800    294.86635   -10475.467            0   -9597.4058   -11703.144    788.81471    9.2397099    9.2397099    9.2397099    47.617447 
    8900    304.48438   -10494.681            0   -9587.9786    3126.2502    789.28495    9.2415455    9.2415455    9.2415455    42.911773 
    9000     303.1721   -10478.604            0   -9575.8092   -6631.0354    789.84182    9.2437184    9.2437184    9.2437184    44.493123 
Loop time of 22.4117 on 16 procs for 1000 steps with 1000 atoms

Performance: 3.855 ns/day, 6.225 hours/ns, 44.620 timesteps/s
94.7% CPU use with 16 MPI tasks x no OpenMP threads

MPI task timing breakdown:
Section |  min time  |  avg time  |  max time  |%varavg| %total
---------------------------------------------------------------
Pair    | 2.3931     | 2.4932     | 2.6555     |   4.3 | 11.12
Neigh   | 0.79163    | 0.82071    | 0.85692    |   1.9 |  3.66
Comm    | 0.76834    | 0.96664    | 1.0959     |   8.4 |  4.31
Output  | 11.982     | 12.366     | 18.072     |  41.9 | 55.18
Modify  | 0.050193   | 5.7566     | 6.141      |  61.4 | 25.69
Other   |            | 0.008452   |            |       |  0.04

Nlocal:    62.5 ave 69 max 58 min
Histogram: 3 2 2 1 2 2 2 0 1 1
Nghost:    1850.25 ave 1870 max 1832 min
Histogram: 2 2 2 2 1 0 2 1 3 1
Neighs:    0 ave 0 max 0 min
Histogram: 16 0 0 0 0 0 0 0 0 0
FullNghs:  18687.2 ave 20632 max 17283 min
Histogram: 2 3 1 2 2 2 2 0 1 1

Total # of neighbors = 298996
Ave neighs/atom = 298.996
Neighbor list builds = 1000
Dangerous builds not checked
Setting up Verlet run ...
  Unit style    : real
  Current step  : 9000
  Time step     : 1
Per MPI rank memory allocation (min/avg/max) = 4.578 | 4.578 | 4.579 Mbytes
Step Temp E_pair E_mol TotEng Press Volume Lx Ly Lz S/CPU 
    9000     303.1721   -10478.604            0   -9575.8092   -6631.0354    789.84182    9.2437184    9.2437184    9.2437184            0 
    9100    312.17245   -10493.459            0    -9563.863   -12748.031    790.22318    9.2452059    9.2452059    9.2452059    50.796229 
    9200    301.89123    -10450.26            0   -9551.2794   -8011.7071    789.79369    9.2435307    9.2435307    9.2435307      38.1678 
    9300    299.28855   -10433.668            0   -9542.4377    -7889.058     788.7423    9.2394271    9.2394271    9.2394271    48.197038 
    9400    310.78939   -10462.054            0   -9536.5759   -492.70508    786.94023    9.2323852    9.2323852    9.2323852    45.140215 
    9500    312.30111   -10461.637            0   -9531.6572    1789.0832     784.6722    9.2235072    9.2235072    9.2235072    42.558486 
    9600    309.32371   -10451.318            0   -9530.2047    3342.5123    782.42279    9.2146851    9.2146851    9.2146851    47.227543 
    9700    305.89364   -10440.453            0   -9529.5539    7543.2159    780.67298    9.2078107    9.2078107    9.2078107    39.812902 
    9800     294.8671   -10409.002            0   -9530.9383    6994.5805    779.70759    9.2040137    9.2040137    9.2040137     48.92379 
    9900     306.4265   -10445.377            0   -9532.8916    2098.2803    779.30773      9.20244      9.20244      9.20244    43.769221 
   10000    306.04121   -10448.315            0   -9536.9763    13019.221    779.25421    9.2022293    9.2022293    9.2022293    38.188633 
Loop time of 22.805 on 16 procs for 1000 steps with 1000 atoms

Performance: 3.789 ns/day, 6.335 hours/ns, 43.850 timesteps/s
94.6% CPU use with 16 MPI tasks x no OpenMP threads

MPI task timing breakdown:
Section |  min time  |  avg time  |  max time  |%varavg| %total
---------------------------------------------------------------
Pair    | 2.2863     | 2.4625     | 2.5924     |   5.1 | 10.80
Neigh   | 0.7855     | 0.81365    | 0.84177    |   1.8 |  3.57
Comm    | 0.83264    | 0.98277    | 1.1868     |   9.4 |  4.31
Output  | 12.861     | 13.216     | 18.48      |  37.4 | 57.95
Modify  | 0.056828   | 5.3214     | 5.6769     |  58.9 | 23.33
Other   |            | 0.008393   |            |       |  0.04

Nlocal:    62.5 ave 70 max 57 min
Histogram: 3 1 1 4 2 0 2 1 1 1
Nghost:    1867.38 ave 1895 max 1849 min
Histogram: 4 0 0 4 3 1 3 0 0 1
Neighs:    0 ave 0 max 0 min
Histogram: 16 0 0 0 0 0 0 0 0 0
FullNghs:  18936 ave 21488 max 17109 min
Histogram: 2 2 1 4 2 0 2 1 1 1

Total # of neighbors = 302976
Ave neighs/atom = 302.976
Neighbor list builds = 1000
Dangerous builds not checked
Setting up Verlet run ...
  Unit style    : real
  Current step  : 10000
  Time step     : 1
Per MPI rank memory allocation (min/avg/max) = 4.578 | 4.578 | 4.579 Mbytes
Step Temp E_pair E_mol TotEng Press Volume Lx Ly Lz S/CPU 
   10000    306.04121   -10448.315            0   -9536.9763    13019.221    779.25421    9.2022293    9.2022293    9.2022293            0 
   10100    307.78279   -10458.798            0   -9542.2734    553.39643    779.61298    9.2036414    9.2036414    9.2036414    40.506823 
   10200    313.81361   -10483.472            0   -9548.9885    14653.262    780.43185    9.2068626    9.2068626    9.2068626    45.232431 
   10300    307.52759   -10471.863            0   -9556.0988    19351.248    782.34253      9.21437      9.21437      9.21437     41.95093 
   10400    306.80267    -10475.86            0   -9562.2543   -231.69849    785.37566    9.2262626    9.2262626    9.2262626     40.51778 
   10500    309.06484   -10488.308            0   -9567.9658    10780.742    788.80133    9.2396576    9.2396576    9.2396576    38.015537 
   10600    306.97779   -10487.681            0    -9573.554   -14727.231    792.32316    9.2533882    9.2533882    9.2533882    43.352922 
   10700    301.30482   -10475.456            0   -9578.2214   -20412.374    795.21175    9.2646197    9.2646197    9.2646197    35.278577 
   10800    302.45635   -10483.104            0   -9582.4409   -8546.8626    797.07229    9.2718395    9.2718395    9.2718395    46.104087 
   10900    285.15652    -10433.75            0   -9584.6022   -16100.692    797.85604    9.2748774    9.2748774    9.2748774    43.904014 
   11000    303.29292   -10490.599            0   -9587.4442   -22833.868    797.29603    9.2727069    9.2727069    9.2727069    41.091866 
Loop time of 24.1833 on 16 procs for 1000 steps with 1000 atoms

Performance: 3.573 ns/day, 6.718 hours/ns, 41.351 timesteps/s
94.6% CPU use with 16 MPI tasks x no OpenMP threads

MPI task timing breakdown:
Section |  min time  |  avg time  |  max time  |%varavg| %total
---------------------------------------------------------------
Pair    | 2.3365     | 2.4529     | 2.5643     |   4.2 | 10.14
Neigh   | 0.78034    | 0.81548    | 0.84658    |   1.7 |  3.37
Comm    | 0.83499    | 0.97073    | 1.1225     |   7.8 |  4.01
Output  | 13.332     | 13.742     | 19.826     |  42.4 | 56.82
Modify  | 0.11109    | 6.194      | 6.6043     |  63.1 | 25.61
Other   |            | 0.008367   |            |       |  0.03

Nlocal:    62.5 ave 70 max 57 min
Histogram: 1 1 4 2 3 2 1 0 0 2
Nghost:    1836.62 ave 1849 max 1821 min
Histogram: 1 0 2 1 3 2 2 2 1 2
Neighs:    0 ave 0 max 0 min
Histogram: 16 0 0 0 0 0 0 0 0 0
FullNghs:  18500.4 ave 20857 max 16781 min
Histogram: 1 1 5 0 4 2 1 0 1 1

Total # of neighbors = 296006
Ave neighs/atom = 296.006
Neighbor list builds = 1000
Dangerous builds not checked
Setting up Verlet run ...
  Unit style    : real
  Current step  : 11000
  Time step     : 1
Per MPI rank memory allocation (min/avg/max) = 4.578 | 4.578 | 4.579 Mbytes
Step Temp E_pair E_mol TotEng Press Volume Lx Ly Lz S/CPU 
   11000    303.29292   -10490.599            0   -9587.4442   -22833.868    797.29603    9.2727069    9.2727069    9.2727069            0 
   11100    294.96904    -10468.27            0   -9589.9027    -29263.63    794.99748    9.2637875    9.2637875    9.2637875    41.528344 
   11200    298.56237   -10481.694            0   -9592.6267    -16567.95    790.84089    9.2476143    9.2476143    9.2476143    47.592648 
   11300    303.89212   -10499.331            0   -9594.3925   -9958.1968    785.62422    9.2272359    9.2272359    9.2272359    38.843085 
   11400    295.20123    -10474.63            0   -9595.5712    2735.5441    780.16758    9.2058233    9.2058233    9.2058233    52.305008 
   11500    299.90927   -10488.957            0   -9595.8787    14087.842    775.47193    9.1873169    9.1873169    9.1873169    39.271923 
   11600    314.94153    -10533.98            0   -9596.1376    18237.079    771.99901    9.1735813    9.1735813    9.1735813    44.759222 
   11700    301.88932   -10497.767            0   -9598.7918    34233.902    770.05208    9.1658631    9.1658631    9.1658631    40.161517 
   11800    307.50735    -10520.29            0   -9604.5858    26923.427    769.93252    9.1653887    9.1653887    9.1653887    44.018315 
   11900    301.45034   -10512.531            0   -9614.8635    10717.769    771.41615     9.171272     9.171272     9.171272     47.01582 
   12000    297.11736   -10512.996            0   -9628.2316     374.0251    774.10961    9.1819337    9.1819337    9.1819337    43.174093 
Loop time of 22.9809 on 16 procs for 1000 steps with 1000 atoms

Performance: 3.760 ns/day, 6.384 hours/ns, 43.514 timesteps/s
94.7% CPU use with 16 MPI tasks x no OpenMP threads

MPI task timing breakdown:
Section |  min time  |  avg time  |  max time  |%varavg| %total
---------------------------------------------------------------
Pair    | 2.4293     | 2.5513     | 2.6284     |   4.1 | 11.10
Neigh   | 0.79476    | 0.83385    | 0.87726    |   2.4 |  3.63
Comm    | 0.82915    | 0.94993    | 1.1115     |   8.7 |  4.13
Output  | 12.268     | 12.664     | 18.547     |  42.7 | 55.11
Modify  | 0.090767   | 5.9733     | 6.3714     |  62.1 | 25.99
Other   |            | 0.008525   |            |       |  0.04

Nlocal:    62.5 ave 67 max 58 min
Histogram: 1 1 3 2 2 1 1 1 3 1
Nghost:    1885.81 ave 1903 max 1861 min
Histogram: 1 0 2 1 1 4 1 2 2 2
Neighs:    0 ave 0 max 0 min
Histogram: 16 0 0 0 0 0 0 0 0 0
FullNghs:  19060.5 ave 20661 max 17638 min
Histogram: 2 0 4 1 2 2 1 0 3 1

Total # of neighbors = 304968
Ave neighs/atom = 304.968
Neighbor list builds = 1000
Dangerous builds not checked
Setting up Verlet run ...
  Unit style    : real
  Current step  : 12000
  Time step     : 1
Per MPI rank memory allocation (min/avg/max) = 4.578 | 4.578 | 4.579 Mbytes
Step Temp E_pair E_mol TotEng Press Volume Lx Ly Lz S/CPU 
   12000    297.11736   -10512.996            0   -9628.2316     374.0251    774.10961    9.1819337    9.1819337    9.1819337            0 
   12100    296.18365   -10527.953            0   -9645.9686     -3744.27    777.08353    9.1936769    9.1936769    9.1936769     35.44248 
   12200    289.22667   -10524.506            0   -9663.2386   -17890.839    779.93196    9.2048964    9.2048964    9.2048964    31.307001 
   12300    289.70221   -10539.636            0   -9676.9519    4800.5397    782.32914    9.2143174    9.2143174    9.2143174    51.316597 
   12400    294.48135   -10561.702            0   -9684.7864   -3221.2171    784.72138    9.2236999    9.2236999    9.2236999    37.806287 
   12500    282.47416   -10528.445            0   -9687.2854     -7318.46    786.84226     9.232002     9.232002     9.232002    38.472078 
   12600    292.33973   -10557.528            0   -9686.9898    -8962.144    788.40168    9.2380969    9.2380969    9.2380969     44.45266 
   12700    295.25721   -10565.565            0   -9686.3393    -22137.85    788.95465    9.2402562    9.2402562    9.2402562    41.241601 
   12800    290.55342    -10547.95            0   -9682.7311   -3397.6074     788.4768    9.2383903    9.2383903    9.2383903    46.121175 
   12900    291.11636   -10545.912            0   -9679.0171   -12677.634    787.42764    9.2342909    9.2342909    9.2342909     36.35889 
   13000    297.41077   -10558.914            0   -9673.2754   -2294.3691    785.74174    9.2276959    9.2276959    9.2276959    39.097244 
Loop time of 25.3593 on 16 procs for 1000 steps with 1000 atoms

Performance: 3.407 ns/day, 7.044 hours/ns, 39.433 timesteps/s
94.6% CPU use with 16 MPI tasks x no OpenMP threads

MPI task timing breakdown:
Section |  min time  |  avg time  |  max time  |%varavg| %total
---------------------------------------------------------------
Pair    | 2.403      | 2.5629     | 2.7404     |   5.2 | 10.11
Neigh   | 0.80475    | 0.8399     | 0.87422    |   2.2 |  3.31
Comm    | 0.67836    | 0.88666    | 1.0842     |  10.8 |  3.50
Output  | 15.122     | 15.498     | 21.01      |  36.1 | 61.11
Modify  | 0.047684   | 5.5633     | 5.9475     |  60.4 | 21.94
Other   |            | 0.00856    |            |       |  0.03

Nlocal:    62.5 ave 68 max 58 min
Histogram: 1 1 3 1 2 1 3 3 0 1
Nghost:    1866.94 ave 1877 max 1847 min
Histogram: 1 0 0 1 2 2 0 2 4 4
Neighs:    0 ave 0 max 0 min
Histogram: 16 0 0 0 0 0 0 0 0 0
FullNghs:  18802.2 ave 20568 max 17333 min
Histogram: 2 1 2 2 1 4 2 1 0 1

Total # of neighbors = 300836
Ave neighs/atom = 300.836
Neighbor list builds = 1000
Dangerous builds not checked
Setting up Verlet run ...
  Unit style    : real
  Current step  : 13000
  Time step     : 1
Per MPI rank memory allocation (min/avg/max) = 4.578 | 4.578 | 4.579 Mbytes
Step Temp E_pair E_mol TotEng Press Volume Lx Ly Lz S/CPU 
   13000    297.41077   -10558.914            0   -9673.2754   -2294.3691    785.74174    9.2276959    9.2276959    9.2276959            0 
   13100    288.95726    -10526.81            0   -9666.3442   -5500.5454    783.44504    9.2186964    9.2186964    9.2186964    47.925975 
   13200    289.68038   -10521.269            0   -9658.6505    3754.7106    780.68331    9.2078513    9.2078513    9.2078513    35.026675 
   13300    291.52364   -10518.095            0   -9649.9876    15842.601    778.01039    9.1973306    9.1973306    9.1973306    42.700094 
   13400    297.70238   -10528.926            0   -9642.4192    12076.856    776.06926    9.1896752    9.1896752    9.1896752    34.841921 
   13500    295.97599   -10515.888            0   -9634.5219    2062.0644    774.71764    9.1843371    9.1843371    9.1843371    43.261043 
   13600    302.16916   -10528.482            0   -9628.6739    19501.697    773.76337    9.1805645    9.1805645    9.1805645    41.632607 
   13700    297.27354   -10506.759            0   -9621.5287    28242.838    773.52302    9.1796139    9.1796139    9.1796139    42.338173 
   13800    304.78887   -10524.288            0   -9616.6787      25020.1    774.12964    9.1820129    9.1820129    9.1820129     44.94363 
   13900    301.40851   -10509.456            0   -9611.9133    1131.5581    775.89026    9.1889686    9.1889686    9.1889686    34.112093 
   14000    313.56096   -10540.541            0   -9606.8095   -2750.7711    778.09361    9.1976585    9.1976585    9.1976585    47.483491 
Loop time of 24.4915 on 16 procs for 1000 steps with 1000 atoms

Performance: 3.528 ns/day, 6.803 hours/ns, 40.830 timesteps/s
94.6% CPU use with 16 MPI tasks x no OpenMP threads

MPI task timing breakdown:
Section |  min time  |  avg time  |  max time  |%varavg| %total
---------------------------------------------------------------
Pair    | 2.3077     | 2.5353     | 2.6085     |   4.3 | 10.35
Neigh   | 0.75977    | 0.82579    | 0.85739    |   2.3 |  3.37
Comm    | 0.86396    | 0.95559    | 1.2501     |   8.9 |  3.90
Output  | 14.01      | 14.395     | 20.114     |  38.9 | 58.78
Modify  | 0.051299   | 5.771      | 6.1564     |  61.5 | 23.56
Other   |            | 0.008536   |            |       |  0.03

Nlocal:    62.5 ave 68 max 56 min
Histogram: 1 1 0 2 2 5 1 0 2 2
Nghost:    1874.94 ave 1896 max 1866 min
Histogram: 3 3 3 3 1 1 0 1 0 1
Neighs:    0 ave 0 max 0 min
Histogram: 16 0 0 0 0 0 0 0 0 0
FullNghs:  18971.5 ave 20808 max 16886 min
Histogram: 1 1 0 2 3 4 1 2 0 2

Total # of neighbors = 303544
Ave neighs/atom = 303.544
Neighbor list builds = 1000
Dangerous builds not checked
Setting up Verlet run ...
  Unit style    : real
  Current step  : 14000
  Time step     : 1
Per MPI rank memory allocation (min/avg/max) = 4.578 | 4.578 | 4.579 Mbytes
Step Temp E_pair E_mol TotEng Press Volume Lx Ly Lz S/CPU 
   14000    313.56096   -10540.541            0   -9606.8095   -2750.7711    778.09361    9.1976585    9.1976585    9.1976585            0 
   14100    302.40397   -10502.038            0   -9601.5305   -6114.9921    780.22934    9.2060662    9.2060662    9.2060662    37.043762 
   14200    299.69902   -10488.246            0   -9595.7933   -166.58793    782.57471    9.2152814    9.2152814    9.2152814    44.733346 
   14300    319.73057   -10544.675            0   -9592.5724    2122.5695    785.15599    9.2254023    9.2254023    9.2254023    42.656331 
   14400    309.42719   -10511.096            0   -9589.6749   -8007.8182    787.76177    9.2355968    9.2355968    9.2355968    41.591988 
   14500    292.72721   -10458.885            0   -9587.1932   -21451.219    789.79816    9.2435481    9.2435481    9.2435481     43.61678 
   14600    293.29816   -10458.899            0   -9585.5075   -14654.142    790.74931    9.2472573    9.2472573    9.2472573    43.716704 
   14700    299.40494   -10475.397            0   -9583.8197   -11691.456     790.6297     9.246791     9.246791     9.246791    42.307643 
   14800    306.57519   -10494.829            0   -9581.9004   -4613.3311    789.89658    9.2439321    9.2439321    9.2439321    50.379065 
   14900    304.37582     -10485.6            0   -9579.2208   -5635.6696    788.85126    9.2398525    9.2398525    9.2398525    47.412309 
   15000    294.88019    -10452.95            0   -9574.8468   -3448.3859    787.23902    9.2335535    9.2335535    9.2335535       32.351 
Loop time of 23.8126 on 16 procs for 1000 steps with 1000 atoms

Performance: 3.628 ns/day, 6.615 hours/ns, 41.995 timesteps/s
94.6% CPU use with 16 MPI tasks x no OpenMP threads

MPI task timing breakdown:
Section |  min time  |  avg time  |  max time  |%varavg| %total
---------------------------------------------------------------
Pair    | 2.4532     | 2.5157     | 2.5926     |   2.6 | 10.56
Neigh   | 0.8135     | 0.8318     | 0.85252    |   1.4 |  3.49
Comm    | 0.83387    | 0.9295     | 1.0061     |   5.1 |  3.90
Output  | 13.383     | 13.764     | 19.437     |  39.5 | 57.80
Modify  | 0.087895   | 5.7627     | 6.1492     |  61.0 | 24.20
Other   |            | 0.008498   |            |       |  0.04

Nlocal:    62.5 ave 67 max 54 min
Histogram: 1 0 0 1 1 2 3 4 3 1
Nghost:    1857.62 ave 1883 max 1826 min
Histogram: 1 0 1 1 3 4 2 2 0 2
Neighs:    0 ave 0 max 0 min
Histogram: 16 0 0 0 0 0 0 0 0 0
FullNghs:  18763.5 ave 20275 max 15997 min
Histogram: 1 0 0 0 2 3 2 5 2 1

Total # of neighbors = 300216
Ave neighs/atom = 300.216
Neighbor list builds = 1000
Dangerous builds not checked
Setting up Verlet run ...
  Unit style    : real
  Current step  : 15000
  Time step     : 1
Per MPI rank memory allocation (min/avg/max) = 4.578 | 4.578 | 4.579 Mbytes
Step Temp E_pair E_mol TotEng Press Volume Lx Ly Lz S/CPU 
   15000    294.88019    -10452.95            0   -9574.8468   -3448.3859    787.23902    9.2335535    9.2335535    9.2335535            0 
   15100     294.6445    -10444.22            0    -9566.819   -9691.7411    785.19247    9.2255452    9.2255452    9.2255452    40.749807 
   15200    294.82442   -10432.125            0   -9554.1884    14341.149    783.28913    9.2180848    9.2180848    9.2180848    42.445075 
   15300    307.97998   -10457.037            0   -9539.9252    11464.053    782.04083    9.2131854    9.2131854    9.2131854    38.022816 
   15400    312.86928   -10458.173            0   -9526.5017     4811.465    781.53115    9.2111834    9.2111834    9.2111834    37.178231 
   15500    309.51925   -10437.303            0   -9515.6071   -2874.9401    781.84531    9.2124175    9.2124175    9.2124175    38.673761 
   15600    311.22041    -10435.41            0   -9508.6491    16777.637     782.8353    9.2163042    9.2163042    9.2163042    43.585479 
   15700    304.32397   -10411.633            0   -9505.4085    7151.7699    784.50451    9.2228501    9.2228501    9.2228501    39.378678 
   15800     312.9362   -10439.562            0    -9507.691    4495.4231    786.52276    9.2307523    9.2307523    9.2307523    43.464328 
   15900    304.43138   -10417.214            0   -9510.6691    7988.3336    788.65238     9.239076     9.239076     9.239076    47.863271 
   16000    318.67722   -10467.455            0   -9518.4887    3727.0485    790.90517    9.2478648    9.2478648    9.2478648    40.231564 
Loop time of 24.4249 on 16 procs for 1000 steps with 1000 atoms

Performance: 3.537 ns/day, 6.785 hours/ns, 40.942 timesteps/s
94.6% CPU use with 16 MPI tasks x no OpenMP threads

MPI task timing breakdown:
Section |  min time  |  avg time  |  max time  |%varavg| %total
---------------------------------------------------------------
Pair    | 2.3713     | 2.5159     | 2.6933     |   5.0 | 10.30
Neigh   | 0.7966     | 0.82695    | 0.87357    |   2.0 |  3.39
Comm    | 0.69765    | 0.92158    | 1.0968     |   9.9 |  3.77
Output  | 14.055     | 14.435     | 20.083     |  38.4 | 59.10
Modify  | 0.068969   | 5.7169     | 6.0974     |  61.0 | 23.41
Other   |            | 0.008466   |            |       |  0.03

Nlocal:    62.5 ave 67 max 59 min
Histogram: 2 4 1 0 0 2 4 1 0 2
Nghost:    1836.19 ave 1847 max 1820 min
Histogram: 1 0 0 2 4 1 2 1 3 2
Neighs:    0 ave 0 max 0 min
Histogram: 16 0 0 0 0 0 0 0 0 0
FullNghs:  18650.4 ave 20010 max 17666 min
Histogram: 5 1 1 1 1 1 3 1 0 2

Total # of neighbors = 298406
Ave neighs/atom = 298.406
Neighbor list builds = 1000
Dangerous builds not checked
Setting up Verlet run ...
  Unit style    : real
  Current step  : 16000
  Time step     : 1
Per MPI rank memory allocation (min/avg/max) = 4.578 | 4.578 | 4.579 Mbytes
Step Temp E_pair E_mol TotEng Press Volume Lx Ly Lz S/CPU 
   16000    318.67722   -10467.455            0   -9518.4887    3727.0485    790.90517    9.2478648    9.2478648    9.2478648            0 
   16100    320.94972   -10485.072            0   -9529.3387    1110.5945    793.01523    9.2560816    9.2560816    9.2560816    46.522057 
   16200    307.41848   -10456.041            0   -9540.6009   -1669.2254    794.57592    9.2621498    9.2621498    9.2621498    45.274484 
   16300    312.46152   -10483.481            0   -9553.0238   -11511.435    795.45142    9.2655504    9.2655504    9.2655504    40.362921 
   16400    301.45906   -10461.182            0   -9563.4882   -7890.9403    795.52854    9.2658498    9.2658498    9.2658498    42.031999 
   16500    304.83458   -10481.003            0   -9573.2578   -14127.381    794.58773    9.2621957    9.2621957    9.2621957     35.44917 
   16600     301.0578   -10478.401            0   -9581.9026    -3171.639    792.41387    9.2537413    9.2537413    9.2537413    37.123114 
   16700    294.23581   -10462.516            0    -9586.332   -12469.295    789.68229     9.243096     9.243096     9.243096    31.923577 
   16800    314.15336   -10527.779            0   -9592.2844   -1495.1284     786.5587    9.2308929    9.2308929    9.2308929    43.597413 
   16900    299.66158   -10488.176            0    -9595.835    6076.4713    783.51428     9.218968     9.218968     9.218968    53.330838 
   17000    302.65064   -10500.809            0   -9599.5672    22894.185    781.18938    9.2098405    9.2098405    9.2098405    38.889184 
Loop time of 24.6023 on 16 procs for 1000 steps with 1000 atoms

Performance: 3.512 ns/day, 6.834 hours/ns, 40.647 timesteps/s
94.5% CPU use with 16 MPI tasks x no OpenMP threads

MPI task timing breakdown:
Section |  min time  |  avg time  |  max time  |%varavg| %total
---------------------------------------------------------------
Pair    | 2.284      | 2.3833     | 2.4469     |   3.1 |  9.69
Neigh   | 0.77359    | 0.80153    | 0.82771    |   1.6 |  3.26
Comm    | 0.90076    | 0.9824     | 1.1056     |   5.5 |  3.99
Output  | 14.069     | 14.465     | 20.352     |  40.0 | 58.80
Modify  | 0.058207   | 5.9616     | 6.3614     |  62.4 | 24.23
Other   |            | 0.00831    |            |       |  0.03

Nlocal:    62.5 ave 70 max 57 min
Histogram: 3 0 2 4 1 0 3 1 1 1
Nghost:    1860 ave 1881 max 1846 min
Histogram: 1 2 3 5 1 1 0 1 1 1
Neighs:    0 ave 0 max 0 min
Histogram: 16 0 0 0 0 0 0 0 0 0
FullNghs:  18901.4 ave 21255 max 17030 min
Histogram: 2 1 2 3 2 0 3 1 1 1

Total # of neighbors = 302422
Ave neighs/atom = 302.422
Neighbor list builds = 1000
Dangerous builds not checked
Setting up Verlet run ...
  Unit style    : real
  Current step  : 17000
  Time step     : 1
Per MPI rank memory allocation (min/avg/max) = 4.578 | 4.578 | 4.579 Mbytes
Step Temp E_pair E_mol TotEng Press Volume Lx Ly Lz S/CPU 
   17000    302.65064   -10500.809            0   -9599.5672    22894.185    781.18938    9.2098405    9.2098405    9.2098405            0 
   17100    296.89809   -10487.174            0   -9603.0624    17399.321     780.0119    9.2052109    9.2052109    9.2052109    48.949716 
   17200    288.26036   -10465.064            0   -9606.6738    841.03439     779.7234    9.2040758    9.2040758    9.2040758    51.260866 
   17300    306.58982   -10524.259            0    -9611.287    17252.153    779.73729    9.2041305    9.2041305    9.2041305    45.650709 
   17400    301.45243   -10512.525            0   -9614.8514    8755.4169     780.3268    9.2064495    9.2064495    9.2064495    44.778575 
   17500    303.14553   -10519.539            0   -9616.8237   -4307.3384    781.31639    9.2103396    9.2103396    9.2103396    51.374384 
   17600    298.94913   -10509.618            0   -9619.3988   -5047.5435    782.48392     9.214925     9.214925     9.214925    42.145238 
   17700    295.54259    -10501.14            0   -9621.0651   -7822.6858      783.364    9.2183785    9.2183785    9.2183785    41.143054 
   17800     294.3572   -10498.368            0   -9621.8228   -11363.666    783.90939    9.2205173    9.2205173    9.2205173    48.457034 
   17900    293.82486    -10497.49            0   -9622.5299    -9585.639    783.98847    9.2208274    9.2208274    9.2208274    42.713318 
   18000    298.78522   -10512.537            0   -9622.8054   -2922.6324    783.78807    9.2200416    9.2200416    9.2200416    42.749294 
Loop time of 21.9114 on 16 procs for 1000 steps with 1000 atoms

Performance: 3.943 ns/day, 6.086 hours/ns, 45.638 timesteps/s
94.7% CPU use with 16 MPI tasks x no OpenMP threads

MPI task timing breakdown:
Section |  min time  |  avg time  |  max time  |%varavg| %total
---------------------------------------------------------------
Pair    | 2.4486     | 2.5276     | 2.6309     |   3.3 | 11.54
Neigh   | 0.80193    | 0.82664    | 0.85909    |   1.9 |  3.77
Comm    | 0.82227    | 0.95524    | 1.0569     |   6.7 |  4.36
Output  | 11.939     | 12.291     | 17.513     |  38.5 | 56.09
Modify  | 0.079892   | 5.3026     | 5.6544     |  58.6 | 24.20
Other   |            | 0.008505   |            |       |  0.04

Nlocal:    62.5 ave 66 max 56 min
Histogram: 1 0 0 1 2 1 2 3 2 4
Nghost:    1850.25 ave 1863 max 1839 min
Histogram: 2 1 1 2 3 2 1 2 0 2
Neighs:    0 ave 0 max 0 min
Histogram: 16 0 0 0 0 0 0 0 0 0
FullNghs:  18842.8 ave 20054 max 16757 min
Histogram: 1 0 1 1 2 2 2 2 2 3

Total # of neighbors = 301484
Ave neighs/atom = 301.484
Neighbor list builds = 1000
Dangerous builds not checked
Setting up Verlet run ...
  Unit style    : real
  Current step  : 18000
  Time step     : 1
Per MPI rank memory allocation (min/avg/max) = 4.578 | 4.578 | 4.579 Mbytes
Step Temp E_pair E_mol TotEng Press Volume Lx Ly Lz S/CPU 
   18000    298.78522   -10512.537            0   -9622.8054   -2922.6324    783.78807    9.2200416    9.2200416    9.2200416            0 
   18100    290.29591   -10484.237            0   -9619.7856   -13501.977    783.30537    9.2181485    9.2181485    9.2181485    33.425063 
   18200    295.00064   -10493.516            0   -9615.0547    4412.9139    782.23653    9.2139538    9.2139538    9.2139538    48.685298 
   18300    313.21894   -10541.181            0   -9608.4688    2844.3276    780.82973    9.2084269    9.2084269    9.2084269    42.851621 
   18400    306.03047   -10506.762            0   -9595.4553    13045.092    779.64269    9.2037583    9.2037583    9.2037583    41.401814 
   18500    300.79927   -10478.231            0   -9582.5021   -4575.6635    778.83984     9.200598     9.200598     9.200598    45.578805 
   18600    308.73593   -10489.221            0   -9569.8584    3868.6292    778.16871    9.1979545    9.1979545    9.1979545    44.432919 
   18700    314.49332   -10496.867            0   -9560.3592    5590.3125    777.64259    9.1958811    9.1958811    9.1958811    40.793789 
   18800    301.21487   -10450.269            0   -9553.3022    10008.465    777.69816    9.1961001    9.1961001    9.1961001    36.279679 
   18900    296.88769   -10433.161            0   -9549.0799    14593.554     778.5923    9.1996231    9.1996231    9.1996231    38.893529 
   19000    311.01849   -10474.506            0   -9548.3461     18248.94    780.31222    9.2063921    9.2063921    9.2063921    40.443602 
Loop time of 24.4908 on 16 procs for 1000 steps with 1000 atoms

Performance: 3.528 ns/day, 6.803 hours/ns, 40.832 timesteps/s
94.6% CPU use with 16 MPI tasks x no OpenMP threads

MPI task timing breakdown:
Section |  min time  |  avg time  |  max time  |%varavg| %total
---------------------------------------------------------------
Pair    | 2.3907     | 2.5264     | 2.7051     |   4.7 | 10.32
Neigh   | 0.79911    | 0.82496    | 0.87098    |   2.0 |  3.37
Comm    | 0.76095    | 0.96148    | 1.1237     |   9.1 |  3.93
Output  | 13.024     | 13.468     | 20.085     |  46.6 | 54.99
Modify  | 0.086928   | 6.7012     | 7.1451     |  66.0 | 27.36
Other   |            | 0.00851    |            |       |  0.03

Nlocal:    62.5 ave 68 max 57 min
Histogram: 3 0 0 1 3 2 4 2 0 1
Nghost:    1866.62 ave 1886 max 1847 min
Histogram: 1 3 1 1 2 1 2 2 2 1
Neighs:    0 ave 0 max 0 min
Histogram: 16 0 0 0 0 0 0 0 0 0
FullNghs:  18921 ave 20758 max 17113 min
Histogram: 1 2 0 1 3 2 5 1 0 1

Total # of neighbors = 302736
Ave neighs/atom = 302.736
Neighbor list builds = 1000
Dangerous builds not checked
Setting up Verlet run ...
  Unit style    : real
  Current step  : 19000
  Time step     : 1
Per MPI rank memory allocation (min/avg/max) = 4.578 | 4.578 | 4.579 Mbytes
Step Temp E_pair E_mol TotEng Press Volume Lx Ly Lz S/CPU 
   19000    311.01849   -10474.506            0   -9548.3461     18248.94    780.31222    9.2063921    9.2063921    9.2063921            0 
   19100    315.85409   -10489.143            0    -9548.583   -2696.8388     782.3784    9.2145108    9.2145108    9.2145108    45.249675 
   19200      310.215   -10474.196            0   -9550.4292    2409.6696    784.17643    9.2215642    9.2215642    9.2215642    43.698591 
   19300    307.99112   -10474.371            0   -9557.2258   -6417.4736    785.62228    9.2272283    9.2272283    9.2272283    54.920219 
   19400    290.23104   -10428.781            0   -9564.5224   -10934.651     786.4075    9.2303014    9.2303014    9.2303014     47.10388 
   19500    298.54412   -10462.406            0   -9573.3923   -8083.8822    786.54399    9.2308354    9.2308354    9.2308354    35.988938 
   19600    300.95528   -10478.658            0   -9582.4645    296.66418    786.31547    9.2299413    9.2299413    9.2299413    51.070278 
   19700    292.89719   -10462.068            0     -9589.87    8123.7638    785.95538    9.2285322    9.2285322    9.2285322    55.515143 
   19800     295.9413   -10478.507            0   -9597.2442    8810.5571    785.69853    9.2275268    9.2275268    9.2275268    39.749565 
   19900    299.04092    -10494.14            0   -9603.6469    11.460883    785.65655    9.2273624    9.2273624    9.2273624    43.707747 
   20000    298.01267   -10497.777            0   -9610.3465   -6094.6147    785.84869    9.2281146    9.2281146    9.2281146    49.511916 
Loop time of 21.8036 on 16 procs for 1000 steps with 1000 atoms

Performance: 3.963 ns/day, 6.057 hours/ns, 45.864 timesteps/s
94.7% CPU use with 16 MPI tasks x no OpenMP threads

MPI task timing breakdown:
Section |  min time  |  avg time  |  max time  |%varavg| %total
---------------------------------------------------------------
Pair    | 2.3978     | 2.4912     | 2.6034     |   3.8 | 11.43
Neigh   | 0.78481    | 0.82086    | 0.86578    |   2.2 |  3.76
Comm    | 0.83897    | 0.96828    | 1.0925     |   8.0 |  4.44
Output  | 11.705     | 12.069     | 17.461     |  40.1 | 55.35
Modify  | 0.055825   | 5.4456     | 5.8099     |  59.6 | 24.98
Other   |            | 0.008441   |            |       |  0.04

Nlocal:    62.5 ave 67 max 58 min
Histogram: 1 2 1 3 2 1 1 2 1 2
Nghost:    1863.44 ave 1876 max 1852 min
Histogram: 2 1 2 2 2 2 1 0 2 2
Neighs:    0 ave 0 max 0 min
Histogram: 16 0 0 0 0 0 0 0 0 0
FullNghs:  18780.4 ave 20165 max 17409 min
Histogram: 2 2 0 3 2 1 1 2 0 3

Total # of neighbors = 300486
Ave neighs/atom = 300.486
Neighbor list builds = 1000
Dangerous builds not checked
Setting up Verlet run ...
  Unit style    : real
  Current step  : 20000
  Time step     : 1
Per MPI rank memory allocation (min/avg/max) = 4.578 | 4.578 | 4.579 Mbytes
Step Temp E_pair E_mol TotEng Press Volume Lx Ly Lz S/CPU 
   20000    298.01267   -10497.777            0   -9610.3465   -6094.6147    785.84869    9.2281146    9.2281146    9.2281146            0 
   20100    292.65069   -10486.182            0   -9614.7186   -2698.6595    785.54429    9.2269229    9.2269229    9.2269229    44.604115 
   20200    294.82274   -10497.721            0    -9619.789   -1440.5048    784.97909    9.2247095    9.2247095    9.2247095     44.03897 
   20300    303.25851   -10527.179            0   -9624.1274     3535.141    784.47924     9.222751     9.222751     9.222751     39.90625 
   20400    287.71642   -10482.895            0   -9626.1245   -2836.9726     784.1228     9.221354     9.221354     9.221354    31.901048 
   20500    289.84885   -10490.593            0   -9627.4725   -5815.3589    783.54554    9.2190906    9.2190906    9.2190906    33.767427 
   20600     308.3297   -10548.709            0   -9630.5556    2612.3286    782.54107    9.2151494    9.2151494    9.2151494    48.757688 
   20700    306.34984   -10542.769            0   -9630.5112    778.86663    781.06865     9.209366     9.209366     9.209366    52.590067 
   20800     302.0197   -10529.956            0   -9630.5925    18510.333    779.88216    9.2047005    9.2047005    9.2047005    45.414953 
   20900     304.3294   -10536.477            0   -9630.2357    388.06917     779.3489     9.202602     9.202602     9.202602    42.331025 
   21000    296.43883    -10511.29            0   -9628.5458   -13804.909    779.12938    9.2017379    9.2017379    9.2017379    35.171504 
Loop time of 24.4747 on 16 procs for 1000 steps with 1000 atoms

Performance: 3.530 ns/day, 6.799 hours/ns, 40.859 timesteps/s
94.6% CPU use with 16 MPI tasks x no OpenMP threads

MPI task timing breakdown:
Section |  min time  |  avg time  |  max time  |%varavg| %total
---------------------------------------------------------------
Pair    | 2.3794     | 2.5221     | 2.6619     |   4.7 | 10.31
Neigh   | 0.78305    | 0.82805    | 0.88506    |   2.8 |  3.38
Comm    | 0.75257    | 0.94995    | 1.1371     |  10.0 |  3.88
Output  | 13.535     | 13.945     | 20.037     |  42.1 | 56.98
Modify  | 0.12601    | 6.221      | 6.6314     |  63.1 | 25.42
Other   |            | 0.008608   |            |       |  0.04

Nlocal:    62.5 ave 75 max 57 min
Histogram: 2 4 3 3 2 1 0 0 0 1
Nghost:    1862.94 ave 1882 max 1845 min
Histogram: 3 0 1 2 4 0 1 3 0 2
Neighs:    0 ave 0 max 0 min
Histogram: 16 0 0 0 0 0 0 0 0 0
FullNghs:  18921.4 ave 22770 max 17182 min
Histogram: 2 3 4 2 3 1 0 0 0 1

Total # of neighbors = 302742
Ave neighs/atom = 302.742
Neighbor list builds = 1000
Dangerous builds not checked
Setting up Verlet run ...
  Unit style    : real
  Current step  : 21000
  Time step     : 1
Per MPI rank memory allocation (min/avg/max) = 4.578 | 4.578 | 4.579 Mbytes
Step Temp E_pair E_mol TotEng Press Volume Lx Ly Lz S/CPU 
   21000    296.43883    -10511.29            0   -9628.5458   -13804.909    779.12938    9.2017379    9.2017379    9.2017379            0 
   21100    297.54258   -10510.124            0   -9624.0929   -8327.2895    778.63444    9.1997891    9.1997891    9.1997891    35.483791 
   21200    304.80397   -10529.247            0   -9621.5929    2077.6482    778.01378     9.197344     9.197344     9.197344    48.992894 
   21300    306.92559   -10529.745            0   -9615.7727    14631.958    777.97154    9.1971775    9.1971775    9.1971775    37.836508 
   21400    301.90278   -10508.269            0   -9609.2543    10558.424    778.69979    9.2000464    9.2000464    9.2000464    48.743109 
   21500    308.20357    -10523.68            0   -9605.9025     13347.05     779.8269    9.2044831    9.2044831    9.2044831    49.584172 
   21600    302.72947   -10503.246            0   -9601.7693   -5007.0026     781.4202    9.2107475    9.2107475    9.2107475    35.217869 
   21700    297.38603   -10484.482            0   -9598.9176   -5651.1143    783.21888    9.2178092    9.2178092    9.2178092    43.446983 
   21800    306.64028   -10510.943            0   -9597.8206   -13015.416     784.9795    9.2247111    9.2247111    9.2247111    49.809985 
   21900    291.70577   -10463.243            0   -9594.5931   -16071.689    786.05893    9.2289374    9.2289374    9.2289374    31.808314 
   22000    294.77529   -10470.753            0   -9592.9629   -133.05953    786.58635    9.2310011    9.2310011    9.2310011    35.161795 
Loop time of 24.7072 on 16 procs for 1000 steps with 1000 atoms

Performance: 3.497 ns/day, 6.863 hours/ns, 40.474 timesteps/s
94.6% CPU use with 16 MPI tasks x no OpenMP threads

MPI task timing breakdown:
Section |  min time  |  avg time  |  max time  |%varavg| %total
---------------------------------------------------------------
Pair    | 2.336      | 2.5613     | 2.7316     |   5.6 | 10.37
Neigh   | 0.78914    | 0.83753    | 0.88159    |   2.4 |  3.39
Comm    | 0.7088     | 0.92195    | 1.1964     |  11.3 |  3.73
Output  | 13.618     | 14.038     | 20.283     |  43.0 | 56.82
Modify  | 0.093713   | 6.3396     | 6.761      |  64.0 | 25.66
Other   |            | 0.008539   |            |       |  0.03

Nlocal:    62.5 ave 68 max 59 min
Histogram: 3 1 3 4 0 0 1 2 1 1
Nghost:    1852.38 ave 1872 max 1832 min
Histogram: 2 1 2 1 2 0 4 1 1 2
Neighs:    0 ave 0 max 0 min
Histogram: 16 0 0 0 0 0 0 0 0 0
FullNghs:  18777.9 ave 20611 max 17600 min
Histogram: 3 2 2 3 1 0 1 3 0 1

Total # of neighbors = 300446
Ave neighs/atom = 300.446
Neighbor list builds = 1000
Dangerous builds not checked
Setting up Verlet run ...
  Unit style    : real
  Current step  : 22000
  Time step     : 1
Per MPI rank memory allocation (min/avg/max) = 4.578 | 4.578 | 4.579 Mbytes
Step Temp E_pair E_mol TotEng Press Volume Lx Ly Lz S/CPU 
   22000    294.77529   -10470.753            0   -9592.9629   -133.05953    786.58635    9.2310011    9.2310011    9.2310011            0 
   22100    293.23299   -10464.437            0   -9591.2395   -3584.4997    786.83325    9.2319668    9.2319668    9.2319668     41.69448 
   22200    308.66453   -10509.754            0   -9590.6042    3411.0959    786.74323    9.2316147    9.2316147    9.2316147     50.32819 
   22300    313.97582   -10524.097            0   -9589.1304    6090.1491    786.31387    9.2299351    9.2299351    9.2299351    46.395534 
   22400     311.1656   -10517.061            0    -9590.463    3656.2225    785.94417    9.2284883    9.2284883    9.2284883    33.330665 
   22500    308.12949   -10510.425            0   -9592.8684   -11154.916    785.54479    9.2269249    9.2269249    9.2269249    44.220877 
   22600    293.09942   -10467.067            0   -9594.2675   -10629.169    785.04048    9.2249499    9.2249499    9.2249499    38.482074 
   22700    301.95925   -10498.121            0   -9598.9382    -1942.238    784.41596     9.222503     9.222503     9.222503    41.895333 
   22800    300.35012   -10500.122            0   -9605.7306   -13266.978    783.53412    9.2190458    9.2190458    9.2190458    41.145745 
   22900    303.80126   -10518.205            0   -9613.5368    175.27867     782.3421    9.2143683    9.2143683    9.2143683    45.707393 
   23000     287.3042    -10477.07            0   -9621.5267    14277.379    781.70447    9.2118643    9.2118643    9.2118643    41.285577 
Loop time of 23.8283 on 16 procs for 1000 steps with 1000 atoms

Performance: 3.626 ns/day, 6.619 hours/ns, 41.967 timesteps/s
94.6% CPU use with 16 MPI tasks x no OpenMP threads

MPI task timing breakdown:
Section |  min time  |  avg time  |  max time  |%varavg| %total
---------------------------------------------------------------
Pair    | 2.3635     | 2.4733     | 2.5829     |   4.5 | 10.38
Neigh   | 0.78806    | 0.81711    | 0.84254    |   1.9 |  3.43
Comm    | 0.81874    | 0.95387    | 1.0924     |   8.7 |  4.00
Output  | 13.045     | 13.453     | 19.521     |  42.7 | 56.46
Modify  | 0.054683   | 6.1221     | 6.5301     |  63.3 | 25.69
Other   |            | 0.00843    |            |       |  0.04

Nlocal:    62.5 ave 64 max 59 min
Histogram: 2 0 0 0 3 0 1 0 3 7
Nghost:    1867.56 ave 1886 max 1854 min
Histogram: 4 2 2 0 0 2 2 2 0 2
Neighs:    0 ave 0 max 0 min
Histogram: 16 0 0 0 0 0 0 0 0 0
FullNghs:  18885.9 ave 19385 max 17752 min
Histogram: 2 0 0 0 3 0 1 1 2 7

Total # of neighbors = 302174
Ave neighs/atom = 302.174
Neighbor list builds = 1000
Dangerous builds not checked
Setting up Verlet run ...
  Unit style    : real
  Current step  : 23000
  Time step     : 1
Per MPI rank memory allocation (min/avg/max) = 4.578 | 4.578 | 4.579 Mbytes
Step Temp E_pair E_mol TotEng Press Volume Lx Ly Lz S/CPU 
   23000     287.3042    -10477.07            0   -9621.5267    14277.379    781.70447    9.2118643    9.2118643    9.2118643            0 
   23100    289.47674   -10492.864            0   -9630.8514    1180.4927    781.82222    9.2123268    9.2123268    9.2123268    47.635638 
   23200    291.78963   -10507.249            0   -9638.3497   -882.57323    782.08768    9.2133693    9.2133693    9.2133693    39.231163 
   23300    311.59909   -10574.073            0   -9646.1838   -1613.0125    782.30156    9.2142091    9.2142091    9.2142091    51.304171 
   23400    293.53705   -10524.037            0   -9649.9339   -1847.9021    782.41268    9.2146454    9.2146454    9.2146454    37.156696 
   23500    294.86901   -10530.939            0   -9652.8692   -6798.5303    782.36828    9.2144711    9.2144711    9.2144711    35.312411 
   23600     300.1396    -10549.31            0   -9655.5458    7298.8041    782.12972    9.2135344    9.2135344    9.2135344    47.143015 
   23700    299.94153   -10548.256            0   -9655.0817    105.35311    781.98151    9.2129524    9.2129524    9.2129524    34.329079 
   23800    285.80575   -10503.316            0   -9652.2357   -11552.611    781.43128    9.2107911    9.2107911    9.2107911    41.973077 
   23900    290.85435   -10513.872            0   -9647.7575    3833.3247     780.5596    9.2073649    9.2073649    9.2073649    53.703405 
   24000    280.71912   -10474.627            0   -9638.6931   -583.53854    779.77507    9.2042792    9.2042792    9.2042792    26.505344 
Loop time of 25.1722 on 16 procs for 1000 steps with 1000 atoms

Performance: 3.432 ns/day, 6.992 hours/ns, 39.726 timesteps/s
94.6% CPU use with 16 MPI tasks x no OpenMP threads

MPI task timing breakdown:
Section |  min time  |  avg time  |  max time  |%varavg| %total
---------------------------------------------------------------
Pair    | 2.3882     | 2.501      | 2.6222     |   5.0 |  9.94
Neigh   | 0.79857    | 0.82106    | 0.85243    |   1.6 |  3.26
Comm    | 0.80476    | 0.95866    | 1.0919     |   9.1 |  3.81
Output  | 13.005     | 13.495     | 20.782     |  51.2 | 53.61
Modify  | 0.10201    | 7.3885     | 7.8792     |  69.2 | 29.35
Other   |            | 0.008485   |            |       |  0.03

Nlocal:    62.5 ave 66 max 58 min
Histogram: 1 1 4 1 0 1 2 0 2 4
Nghost:    1866.62 ave 1877 max 1854 min
Histogram: 2 2 0 1 0 3 2 1 2 3
Neighs:    0 ave 0 max 0 min
Histogram: 16 0 0 0 0 0 0 0 0 0
FullNghs:  18937.4 ave 20136 max 17581 min
Histogram: 2 2 2 0 2 0 2 1 1 4

Total # of neighbors = 302998
Ave neighs/atom = 302.998
Neighbor list builds = 1000
Dangerous builds not checked
Setting up Verlet run ...
  Unit style    : real
  Current step  : 24000
  Time step     : 1
Per MPI rank memory allocation (min/avg/max) = 4.578 | 4.578 | 4.579 Mbytes
Step Temp E_pair E_mol TotEng Press Volume Lx Ly Lz S/CPU 
   24000    280.71912   -10474.627            0   -9638.6931   -583.53854    779.77507    9.2042792    9.2042792    9.2042792            0 
   24100    291.99974   -10495.264            0   -9625.7389    3550.1937     779.0397    9.2013849    9.2013849    9.2013849    41.184395 
   24200    299.77015    -10502.73            0   -9610.0661    5939.8847    778.75332    9.2002572    9.2002572    9.2002572    42.219376 
   24300    292.55211    -10464.61            0   -9593.4394    11682.151    779.41881    9.2028772    9.2028772    9.2028772    43.627496 
   24400    303.18414    -10483.85            0   -9581.0198    18458.998    781.04076    9.2092564    9.2092564    9.2092564    44.051729 
   24500    303.17217    -10476.05            0   -9573.2546     1561.676    783.72959    9.2198123    9.2198123    9.2198123    38.689446 
   24600    301.87204   -10466.399            0   -9567.4754    1940.7936    787.03039    9.2327378    9.2327378    9.2327378    53.578739 
   24700    292.69168   -10435.111            0   -9563.5255   -12863.547    790.54929    9.2464775    9.2464775    9.2464775    45.988699 
   24800    299.12324   -10452.914            0   -9562.1765   -17877.727    793.71522    9.2588043    9.2588043    9.2588043    42.634687 
   24900    301.24624   -10455.665            0    -9558.605   -38103.228    795.97318    9.2675758    9.2675758    9.2675758    44.787551 
   25000    299.52916   -10449.553            0   -9557.6064   -20821.036    796.72219    9.2704818    9.2704818    9.2704818    44.403921 
Loop time of 22.8148 on 16 procs for 1000 steps with 1000 atoms

Performance: 3.787 ns/day, 6.337 hours/ns, 43.831 timesteps/s
94.7% CPU use with 16 MPI tasks x no OpenMP threads

MPI task timing breakdown:
Section |  min time  |  avg time  |  max time  |%varavg| %total
---------------------------------------------------------------
Pair    | 2.4227     | 2.5127     | 2.654      |   4.5 | 11.01
Neigh   | 0.794      | 0.82533    | 0.88653    |   2.3 |  3.62
Comm    | 0.73462    | 0.93713    | 1.059      |   9.1 |  4.11
Output  | 12.677     | 13.04      | 18.441     |  38.6 | 57.16
Modify  | 0.093435   | 5.4908     | 5.8537     |  59.5 | 24.07
Other   |            | 0.008472   |            |       |  0.04

Nlocal:    62.5 ave 68 max 57 min
Histogram: 2 2 1 1 2 2 2 0 1 3
Nghost:    1828.5 ave 1844 max 1813 min
Histogram: 4 0 0 1 1 5 0 2 0 3
Neighs:    0 ave 0 max 0 min
Histogram: 16 0 0 0 0 0 0 0 0 0
FullNghs:  18534.2 ave 20224 max 16941 min
Histogram: 2 2 1 1 2 2 2 1 0 3

Total # of neighbors = 296548
Ave neighs/atom = 296.548
Neighbor list builds = 1000
Dangerous builds not checked
Setting up Verlet run ...
  Unit style    : real
  Current step  : 25000
  Time step     : 1
Per MPI rank memory allocation (min/avg/max) = 4.578 | 4.578 | 4.579 Mbytes
Step Temp E_pair E_mol TotEng Press Volume Lx Ly Lz S/CPU 
   25000    299.52916   -10449.553            0   -9557.6064   -20821.036    796.72219    9.2704818    9.2704818    9.2704818            0 
   25100    293.52334   -10429.997            0   -9555.9346   -14159.334    796.28014    9.2687669    9.2687669    9.2687669    38.596277 
   25200     276.7269   -10378.903            0   -9554.8579   -26938.806    794.46991    9.2617378    9.2617378    9.2617378    49.148234 
   25300    305.54227   -10465.856            0    -9556.003   -13322.267    791.25658    9.2492342    9.2492342    9.2492342    41.863715 
   25400    301.12548   -10452.022            0    -9555.322    2228.0303    787.22868    9.2335131    9.2335131    9.2335131    48.973538 
   25500    300.61067   -10450.329            0   -9555.1621    21046.886    783.30464    9.2181457    9.2181457    9.2181457     37.75633 
   25600    307.67331   -10472.204            0   -9556.0051    7755.1054    780.26791    9.2062179    9.2062179    9.2062179    33.741476 
   25700    308.15611   -10475.812            0   -9558.1758    18804.448    778.40221    9.1988744    9.1988744    9.1988744    46.344676 
   25800    312.33375   -10492.777            0      -9562.7     28870.14    777.71436     9.196164     9.196164     9.196164    46.906398 
   25900    311.61422   -10500.604            0   -9572.6698    22463.222    778.36545    9.1987296    9.1987296    9.1987296    43.292338 
   26000    302.48262   -10485.559            0   -9584.8171    6784.0652    780.51868     9.207204     9.207204     9.207204    40.949962 
Loop time of 23.71 on 16 procs for 1000 steps with 1000 atoms

Performance: 3.644 ns/day, 6.586 hours/ns, 42.176 timesteps/s
94.6% CPU use with 16 MPI tasks x no OpenMP threads

MPI task timing breakdown:
Section |  min time  |  avg time  |  max time  |%varavg| %total
---------------------------------------------------------------
Pair    | 2.3723     | 2.4823     | 2.5796     |   3.2 | 10.47
Neigh   | 0.79558    | 0.81967    | 0.8574     |   1.7 |  3.46
Comm    | 0.84108    | 0.96243    | 1.0977     |   6.3 |  4.06
Output  | 13.238     | 13.624     | 19.353     |  40.1 | 57.46
Modify  | 0.082214   | 5.8127     | 6.1984     |  61.4 | 24.52
Other   |            | 0.009351   |            |       |  0.04

Nlocal:    62.5 ave 70 max 56 min
Histogram: 1 1 2 2 2 4 2 1 0 1
Nghost:    1865.44 ave 1883 max 1849 min
Histogram: 1 2 2 2 2 2 0 3 1 1
Neighs:    0 ave 0 max 0 min
Histogram: 16 0 0 0 0 0 0 0 0 0
FullNghs:  18910.6 ave 21220 max 16979 min
Histogram: 1 2 1 2 2 4 2 1 0 1

Total # of neighbors = 302570
Ave neighs/atom = 302.57
Neighbor list builds = 1000
Dangerous builds not checked
Setting up Verlet run ...
  Unit style    : real
  Current step  : 26000
  Time step     : 1
Per MPI rank memory allocation (min/avg/max) = 4.578 | 4.578 | 4.579 Mbytes
Step Temp E_pair E_mol TotEng Press Volume Lx Ly Lz S/CPU 
   26000    302.48262   -10485.559            0   -9584.8171    6784.0652    780.51868     9.207204     9.207204     9.207204            0 
   26100    301.44306   -10497.005            0   -9599.3594    4171.2425    783.46251    9.2187649    9.2187649    9.2187649    38.840296 
   26200    289.42616    -10473.47            0   -9611.6086   -17901.725    786.76403    9.2316961    9.2316961    9.2316961    35.661404 
   26300    285.68174   -10471.618            0    -9620.907   -10969.498    789.54267    9.2425513    9.2425513    9.2425513    45.009938 
   26400    303.32041   -10530.503            0   -9627.2671   -21691.334    791.07492    9.2485263    9.2485263    9.2485263     34.98802 
   26500    296.16531   -10511.761            0   -9629.8317   -22198.642    791.43611    9.2499337    9.2499337    9.2499337     47.40724 
   26600    295.80604   -10513.561            0   -9632.7008   -6618.0267    790.84764    9.2476406    9.2476406    9.2476406    43.671091 
   26700    302.71629   -10535.483            0   -9634.0454   -10059.755     789.1833    9.2411488    9.2411488    9.2411488    45.182774 
   26800    296.71672   -10518.652            0   -9635.0799   -4116.1051    786.36622    9.2301399    9.2301399    9.2301399     46.37895 
   26900    292.04346   -10502.285            0    -9632.629    6852.0864     782.9964    9.2169363    9.2169363    9.2169363    41.510164 
   27000    292.00526   -10498.512            0   -9628.9698   -14661.903    779.75919    9.2042167    9.2042167    9.2042167    53.190604 
Loop time of 23.5164 on 16 procs for 1000 steps with 1000 atoms

Performance: 3.674 ns/day, 6.532 hours/ns, 42.524 timesteps/s
94.6% CPU use with 16 MPI tasks x no OpenMP threads

MPI task timing breakdown:
Section |  min time  |  avg time  |  max time  |%varavg| %total
---------------------------------------------------------------
Pair    | 2.3445     | 2.5162     | 2.702      |   6.0 | 10.70
Neigh   | 0.79142    | 0.83262    | 0.88748    |   2.8 |  3.54
Comm    | 0.69173    | 0.9322     | 1.1449     |  12.1 |  3.96
Output  | 12.943     | 13.334     | 19.149     |  41.1 | 56.70
Modify  | 0.077297   | 5.8925     | 6.284      |  61.9 | 25.06
Other   |            | 0.008498   |            |       |  0.04

Nlocal:    62.5 ave 67 max 56 min
Histogram: 1 0 1 3 0 2 4 0 2 3
Nghost:    1866.12 ave 1887 max 1844 min
Histogram: 3 0 1 3 0 2 2 2 1 2
Neighs:    0 ave 0 max 0 min
Histogram: 16 0 0 0 0 0 0 0 0 0
FullNghs:  18925.5 ave 20334 max 16868 min
Histogram: 1 0 1 3 0 3 3 0 3 2

Total # of neighbors = 302808
Ave neighs/atom = 302.808
Neighbor list builds = 1000
Dangerous builds not checked
Setting up Verlet run ...
  Unit style    : real
  Current step  : 27000
  Time step     : 1
Per MPI rank memory allocation (min/avg/max) = 4.578 | 4.578 | 4.579 Mbytes
Step Temp E_pair E_mol TotEng Press Volume Lx Ly Lz S/CPU 
   27000    292.00526   -10498.512            0   -9628.9698   -14661.903    779.75919    9.2042167    9.2042167    9.2042167            0 
   27100    295.29011   -10504.449            0   -9625.1255    18094.542     776.4026    9.1909907    9.1909907    9.1909907    38.629766 
   27200    303.10107   -10523.065            0   -9620.4818    18207.662    773.88367    9.1810403    9.1810403    9.1810403    38.529385 
   27300    304.22327   -10520.719            0   -9614.7939    21442.594    772.75134    9.1765603    9.1765603    9.1765603    49.557478 
   27400    302.04735   -10510.508            0   -9611.0626    26175.668    772.99728    9.1775337    9.1775337    9.1775337    42.984057 
   27500    314.62718   -10546.341            0   -9609.4346    20603.707    774.95451     9.185273     9.185273     9.185273    39.250589 
   27600    291.89538   -10475.793            0   -9606.5781    14674.376    778.32322    9.1985632    9.1985632    9.1985632     34.79444 
   27700    298.23366   -10494.113            0   -9606.0239   -1773.8262    782.66037    9.2156177    9.2156177    9.2156177    47.139368 
   27800     308.0585   -10522.652            0   -9605.3062   -4765.1779    786.95013    9.2324239    9.2324239    9.2324239    50.381667 
   27900    291.09398   -10468.833            0   -9602.0053   -14115.404    790.97877    9.2481516    9.2481516    9.2481516    35.012067 
   28000    301.92372   -10497.924            0   -9598.8469   -19331.883    793.83095    9.2592542    9.2592542    9.2592542    46.210751 
Loop time of 24.0766 on 16 procs for 1000 steps with 1000 atoms

[...]
 1065700    311.35098    -11249.17            0    -10322.02    -8641.457    745.60145    9.0678066    9.0678066    9.0678066    32.857914 
 1065800    301.77206   -11209.785            0   -10311.159   -6129.3061    744.47408     9.063234     9.063234     9.063234    25.312303 
 1065900    311.17238   -11230.899            0   -10304.281    343.14769    743.32711    9.0585772    9.0585772    9.0585772    34.940038 
 1066000    310.61203   -11223.987            0   -10299.037    2166.6546    742.46716    9.0550826    9.0550826    9.0550826     26.65806 
 1066100    300.46305   -11190.835            0   -10296.108    6140.2729    741.84377    9.0525476    9.0525476    9.0525476    33.325701 
 1066200    309.20748   -11217.721            0   -10296.954    11508.078    741.67179     9.051848     9.051848     9.051848    30.057681 
 1066300    297.22618    -11183.08            0   -10297.991    12253.073    742.04584    9.0533695    9.0533695    9.0533695    29.529237 
 1066400    305.79178   -11211.844            0   -10301.248    10709.512    743.07907    9.0575695    9.0575695    9.0575695    25.338899 
 1066500    314.65036   -11241.418            0   -10304.443    -5482.149    744.59816    9.0637375    9.0637375    9.0637375    26.066487 
 1066600    298.37109    -11194.98            0   -10306.482    3157.3957    746.24542    9.0704164    9.0704164    9.0704164    30.166868 
 1066700     309.5916   -11232.656            0   -10310.745   -4761.4806    747.56132    9.0757448    9.0757448    9.0757448     32.58205 
 1066800     308.4624   -11234.341            0   -10315.793   -958.09427    748.03518     9.077662     9.077662     9.077662    29.148606 
 1066900    299.30237    -11211.19            0   -10319.918    -15050.33     747.8527    9.0769238    9.0769238    9.0769238    28.245796 
 1067000    297.20393    -11208.51            0   -10323.487   -12862.786    746.86665    9.0729327    9.0729327    9.0729327    34.441515 
 1067100    314.62475   -11266.618            0   -10329.719   -10166.128    745.16988    9.0660567    9.0660567    9.0660567    29.167786 
 1067200    312.42635   -11263.998            0   -10333.646    -2639.303      743.202     9.058069     9.058069     9.058069    29.276337 
 1067300    307.73425   -11256.099            0   -10339.719    17442.575    741.38434    9.0506784    9.0506784    9.0506784    26.716575 
 1067400    304.21853   -11252.628            0   -10346.717    15669.327    740.20709    9.0458854    9.0458854    9.0458854    34.074967 
 1067500    301.38175   -11251.361            0   -10353.898    12543.575    739.56522    9.0432699    9.0432699    9.0432699    26.170606 
 1067600    306.34032   -11275.705            0   -10363.476     9930.406    739.55821    9.0432413    9.0432413    9.0432413    31.108101 
 1067700    290.78403   -11236.427            0   -10370.522    9834.6626    740.24925    9.0460571    9.0460571    9.0460571    26.112305 
 1067800    291.23597   -11246.216            0   -10378.965    17473.107    741.58474    9.0514939    9.0514939    9.0514939    30.838655 
 1067900    300.26384   -11279.383            0   -10385.248   -12865.868     743.4933    9.0592523    9.0592523    9.0592523    30.946488 
 1068000    300.09189   -11284.122            0     -10390.5   -14628.718    745.06322    9.0656241    9.0656241    9.0656241    34.727825 
 1068100    293.30081   -11266.739            0   -10393.339   -280.99629    745.94649    9.0692051    9.0692051    9.0692051    29.433226 
 1068200    289.63656   -11256.606            0   -10394.118   -3683.9866    746.40319    9.0710556    9.0710556    9.0710556    32.704137 
 1068300    312.73784   -11327.458            0   -10396.178   -13333.326    746.21754    9.0703035    9.0703035    9.0703035    25.715639 
 1068400    297.37451   -11278.558            0   -10393.027     -13267.2     745.1552    9.0659972    9.0659972    9.0659972     35.44855 
 1068500    297.09203   -11276.582            0   -10391.893   -7474.1496    743.17338    9.0579527    9.0579527    9.0579527    24.743412 
 1068600    299.90508   -11283.743            0   -10390.677   -2764.1032    740.77903    9.0482146    9.0482146    9.0482146    34.893933 
 1068700    303.33639   -11293.584            0     -10390.3    951.46159    738.58446    9.0392706    9.0392706    9.0392706    27.192811 
 1068800    302.37155   -11288.231            0    -10387.82     25855.96    736.99611    9.0327862    9.0327862    9.0327862    31.360388 
 1068900    297.03256   -11269.883            0   -10385.371    19609.372    736.97527    9.0327011    9.0327011    9.0327011    31.941128 
 1069000    310.53122    -11309.58            0   -10384.871    15760.589    737.86564    9.0363372    9.0363372    9.0363372    29.174597 
 1069100    313.86032   -11318.476            0   -10383.853   -8449.2113    739.19539    9.0417623    9.0417623    9.0417623    25.610767 
 1069200    311.60441   -11309.636            0   -10381.731    -1847.753    740.71593    9.0479577    9.0479577    9.0479577    33.003379 
 1069300    301.42187   -11276.911            0   -10379.328   -5709.8398    742.42582    9.0549145    9.0549145    9.0549145    31.230492 
 1069400    292.06561   -11243.473            0   -10373.751    7278.2035     744.3221    9.0626172    9.0626172    9.0626172    26.852882 
 1069500    295.37805   -11246.584            0   -10366.999   -9067.4385    746.20818    9.0702655    9.0702655    9.0702655    29.915373 
 1069600    297.16055    -11241.29            0   -10356.397   -21237.558    747.47167    9.0753819    9.0753819    9.0753819    27.236309 
 1069700    303.71274     -11248.3            0   -10343.895   -12498.111    747.81654    9.0767775    9.0767775    9.0767775    30.746882 
 1069800    290.25785   -11193.485            0   -10329.146   -24453.849    747.22462     9.074382     9.074382     9.074382    36.824311 
 1069900    299.02875   -11207.824            0   -10317.367    1484.9205    745.62873    9.0679172    9.0679172    9.0679172    32.334071 
 1070000    301.30577   -11203.935            0   -10306.698    7221.6296    743.78377    9.0604319    9.0604319    9.0604319    29.549115 
 1070100    316.26943   -11241.278            0   -10299.481    18911.294    742.13548     9.053734     9.053734     9.053734    29.701758 
 1070200     309.1136   -11216.293            0   -10295.806   -985.94511    741.23555     9.050073     9.050073     9.050073    33.574725 
 1070300     301.2956   -11191.717            0    -10294.51    13172.114    740.88723    9.0486551    9.0486551    9.0486551    26.626928 
 1070400    319.20015   -11247.667            0   -10297.143    10165.542    741.23843    9.0500847    9.0500847    9.0500847    28.196625 
 1070500    306.24852   -11212.006            0    -10300.05   -4498.4519    742.28009     9.054322     9.054322     9.054322    35.800764 
 1070600    309.51494   -11228.739            0   -10307.056     7112.771    743.41725    9.0589434    9.0589434    9.0589434    32.826332 
 1070700    302.30956   -11214.532            0   -10314.305   -5028.7633    744.80636    9.0645822    9.0645822    9.0645822    28.855244 
 1070800    312.60313   -11257.266            0   -10326.387    10445.221    746.34488    9.0708194    9.0708194    9.0708194    30.689875 
 1070900    306.39343   -11248.548            0    -10336.16   -3068.3103     748.1122    9.0779735    9.0779735    9.0779735    31.387412 
 1071000     300.9281   -11241.846            0   -10345.734   -20453.037    749.50642    9.0836094    9.0836094    9.0836094    28.547636 
 1071100    305.03745   -11263.387            0   -10355.037   -16933.755    749.84874    9.0849921    9.0849921    9.0849921    30.339958 
 1071200    305.41955   -11271.282            0   -10361.794   -13637.786    748.94024    9.0813216    9.0813216    9.0813216    26.371235 
 1071300    285.53322   -11214.984            0   -10364.715   -24857.797    746.97083    9.0733545    9.0733545    9.0733545    37.523284 
 1071400    302.96273    -11270.57            0   -10368.399   -3112.8353    744.14749    9.0619085    9.0619085    9.0619085    29.032351 
 1071500     306.9434   -11285.617            0   -10371.592    9807.0331    741.22831    9.0500435    9.0500435    9.0500435    36.203866 
 1071600    301.38981   -11269.233            0   -10371.745    19990.371    739.28095    9.0421111    9.0421111    9.0421111    34.006972 
 1071700    299.36551   -11264.274            0   -10372.815    4636.7971    738.70259    9.0397525    9.0397525    9.0397525    30.474234 
 1071800    296.48152   -11256.735            0   -10373.863     19471.64    739.03417    9.0411049    9.0411049    9.0411049     25.16736 
 1071900    295.99829    -11256.66            0   -10375.227   -6064.8546    740.37382    9.0465645    9.0465645    9.0465645    31.713136 
 1072000    291.75141   -11244.991            0   -10376.205    7779.6081    742.24756    9.0541898    9.0541898    9.0541898    34.909426 
 1072100     293.3849   -11250.679            0   -10377.029   -7349.8737     744.4418     9.063103     9.063103     9.063103    30.994578 
 1072200    307.80395   -11293.338            0   -10376.751   -15012.407    746.48246    9.0713767    9.0713767    9.0713767    30.891253 
 1072300     290.7705   -11239.865            0       -10374   -5784.1947     747.7838     9.076645     9.076645     9.076645    27.204443 
 1072400    296.23778   -11253.316            0   -10371.171   -9507.5574    748.22594    9.0784336    9.0784336    9.0784336     31.59803 
 1072500    294.21985   -11244.619            0   -10368.483    5205.1917     747.9297    9.0772353    9.0772353    9.0772353    31.624723 
 1072600     301.3484   -11260.544            0    -10363.18   -8824.8911    747.23049    9.0744058    9.0744058    9.0744058    28.298683 
 1072700      305.858    -11270.44            0   -10359.647    7082.2982    746.17845    9.0701451    9.0701451    9.0701451    30.327563 
 1072800      300.559   -11248.213            0   -10353.199   -4659.7272    745.10334    9.0657868    9.0657868    9.0657868    27.434371 
 1072900     296.6259   -11227.507            0   -10344.206    8643.0407    744.17587    9.0620237    9.0620237    9.0620237    25.280247 
 1073000     293.2427   -11204.607            0   -10331.381    7901.5229    743.49523    9.0592601    9.0592601    9.0592601     32.92351 
 1073100    300.17311   -11208.531            0   -10314.667    21232.911    743.20882    9.0580967    9.0580967    9.0580967    29.046126 
 1073200    300.01869   -11189.383            0   -10295.978   -1198.4529    743.46203    9.0591253    9.0591253    9.0591253    36.443212 
 1073300    308.92049   -11201.521            0   -10281.609    8062.7307    744.05746    9.0615431    9.0615431    9.0615431    26.639061 
 1073400    303.58774   -11175.036            0   -10271.004    13456.498    744.93551    9.0651061    9.0651061    9.0651061    23.068521 
 1073500     311.0298   -11193.058            0   -10266.864   -2499.4763    746.36971      9.07092      9.07092      9.07092    33.321441 
 1073600    302.22644   -11164.521            0   -10264.542    -5255.124    747.65278    9.0761149    9.0761149    9.0761149    26.061192 
 1073700     314.1475   -11201.072            0   -10265.594   -8827.7216    748.32438    9.0788317    9.0788317    9.0788317     35.12772 
 1073800    307.40824   -11181.997            0   -10266.588   -26210.874    748.54365    9.0797184    9.0797184    9.0797184    29.133596 
 1073900    321.02887   -11229.046            0   -10273.077   -3585.8253    747.84294    9.0768843    9.0768843    9.0768843    29.665708 
 1074000     319.9858   -11231.805            0   -10278.942   -8232.0062    746.65645    9.0720814    9.0720814    9.0720814     26.19928 
 1074100    316.22436    -11226.13            0   -10284.468     4622.482    745.06474    9.0656303    9.0656303    9.0656303    27.404805 
 1074200    303.41139   -11195.334            0   -10291.827    20939.379     743.2825     9.058396     9.058396     9.058396    27.675453 
 1074300    306.76134   -11213.847            0   -10300.364    4736.1023    742.39288    9.0547806    9.0547806    9.0547806    31.679694 
 1074400    308.47893   -11228.758            0   -10310.161    12113.572    742.37898    9.0547241    9.0547241    9.0547241    37.522519 
 1074500    295.22368   -11196.752            0   -10317.626    7988.0597    743.20329    9.0580742    9.0580742    9.0580742    27.088595 
 1074600    304.27764   -11231.409            0   -10325.322    8667.9313    744.69988    9.0641502    9.0641502    9.0641502    32.923183 
 1074700    311.27153   -11259.575            0   -10332.661   -15290.756    746.40758    9.0710734    9.0710734    9.0710734    27.067539 
 1074800    296.52858   -11219.807            0   -10336.795   -13620.072    747.73379    9.0764427    9.0764427    9.0764427    30.499698 
 1074900    295.19706   -11219.942            0   -10340.896   -9142.2662     748.1725    9.0782174    9.0782174    9.0782174    29.413888 
 1075000    299.90604   -11238.363            0   -10345.294   -38866.646     747.8793    9.0770314    9.0770314    9.0770314    28.856806 
 1075100    296.96553   -11232.589            0   -10348.276   -2801.8046    746.40291    9.0710545    9.0710545    9.0710545    31.608192 
 1075200    291.97612   -11221.525            0    -10352.07    10226.198    744.25998    9.0623651    9.0623651    9.0623651    33.628067 
 1075300    283.22752   -11196.974            0   -10353.571    14922.358    742.30899    9.0544396    9.0544396    9.0544396    27.559324 
 1075400    296.03689   -11239.112            0   -10357.564     5609.996    740.97519    9.0490132    9.0490132    9.0490132    27.856015 
 1075500    310.93263   -11286.705            0   -10360.801    5775.7829    739.99561    9.0450238    9.0450238    9.0450238    33.401634 
 1075600    294.60858   -11238.573            0   -10361.279    1049.4228    739.72981    9.0439407    9.0439407    9.0439407    24.136696 
 1075700    299.17774   -11254.918            0   -10364.018    1952.5245    739.89295    9.0446055    9.0446055    9.0446055    26.315277 
 1075800    297.43379   -11253.012            0   -10367.305     6831.742    740.65877    9.0477249    9.0477249    9.0477249    37.126499 
 1075900    297.62718   -11255.635            0   -10369.352    4279.9339    742.31266    9.0544545    9.0544545    9.0544545    25.639382 
 1076000    301.63582   -11270.462            0   -10372.242    7037.4149    744.47543    9.0632395    9.0632395    9.0632395    31.815703 
 1076100    296.60987    -11255.71            0   -10372.456   -5949.8264    746.78671     9.072609     9.072609     9.072609      28.1695 
 1076200    288.59514   -11233.733            0   -10374.346   -7925.9458    748.56097    9.0797884    9.0797884    9.0797884    36.967552 
 1076300    289.98848   -11238.543            0   -10375.007    -7970.062    749.66089    9.0842334    9.0842334    9.0842334    29.393981 
 1076400    293.40175   -11251.067            0   -10377.366   -25879.689    749.63189    9.0841163    9.0841163    9.0841163    34.147161 
 1076500     293.8929   -11251.355            0   -10376.192   -6596.1087    748.12926    9.0780425    9.0780425    9.0780425    29.641358 
 1076600     312.4302   -11304.843            0   -10374.479   -11320.439    745.50739    9.0674253    9.0674253    9.0674253    34.616774 
 1076700    306.20039   -11278.861            0   -10367.049    6012.8148    742.29583     9.054386     9.054386     9.054386    23.050276 
 1076800    293.06563   -11229.752            0   -10357.052    15889.728    739.24855     9.041979     9.041979     9.041979     31.44349 
 1076900    290.41335   -11210.242            0   -10345.441    21780.663    737.35785    9.0342639    9.0342639    9.0342639     30.84589 
 1077000    296.53856   -11218.291            0    -10335.25    15105.374    736.89274    9.0323639    9.0323639    9.0323639    29.085893 
 1077100    299.35031   -11217.026            0   -10325.611    28326.493    737.64111    9.0354205    9.0354205    9.0354205    32.474598 
 1077200    295.13101   -11197.724            0   -10318.875    17747.451    740.03203    9.0451722    9.0451722    9.0451722    29.144742 
 1077300    298.70914   -11202.609            0   -10313.104   -47.177269      743.594    9.0596612    9.0596612    9.0596612    29.994223 
 1077400    307.91298   -11226.542            0   -10309.629   -5909.6155    747.22567    9.0743862    9.0743862    9.0743862    32.208024 
 1077500    295.61841   -11186.377            0   -10306.076   -23677.442    750.34069    9.0869785    9.0869785    9.0869785    34.888694 
 1077600    315.44434   -11244.534            0   -10305.194   -32919.323    752.06815    9.0939466    9.0939466    9.0939466    27.887414 
 1077700    305.65004   -11215.687            0   -10305.513   -20709.007    752.26241    9.0947295    9.0947295    9.0947295    25.727226 
 1077800    317.60126   -11253.579            0   -10307.817   -23851.941     751.0592    9.0898781    9.0898781    9.0898781    26.726441 
 1077900    291.60196    -11178.03            0    -10309.69    -3995.812    748.62724    9.0800563    9.0800563    9.0800563     32.07272 
 1078000    303.72126   -11218.492            0   -10314.062     7567.071    745.73291    9.0683395    9.0683395    9.0683395    30.030744 
 1078100    311.65382   -11247.783            0   -10319.731     14004.34    743.21927    9.0581391    9.0581391    9.0581391    28.105719 
 1078200    298.78968   -11218.029            0   -10328.284        16427    741.55185      9.05136      9.05136      9.05136    27.398122 
 1078300    314.85982   -11275.435            0   -10337.837    5314.8909    740.71479    9.0479531    9.0479531    9.0479531    25.815098 
 1078400    297.83556    -11236.16            0   -10349.256    10407.378    740.88568    9.0486488    9.0486488    9.0486488    34.879693 
 1078500      304.175    -11267.93            0   -10362.149    13109.607    742.10119    9.0535946    9.0535946    9.0535946    29.027579 
 1078600    296.16245   -11255.455            0   -10373.533    11296.052    743.99331    9.0612827    9.0612827    9.0612827    25.393611 
 1078700     300.9677   -11279.459            0   -10383.229   -3943.3154     745.9034    9.0690305    9.0690305    9.0690305    31.172129 
 1078800    292.92545   -11260.906            0   -10388.624    228.04494    747.46009    9.0753351    9.0753351    9.0753351    32.235038 
 1078900    301.72084   -11292.765            0   -10394.292   -7649.6941    748.13013    9.0780461    9.0780461    9.0780461    30.789965 
 1079000    291.53955   -11264.049            0   -10395.894   -31264.749    748.02838    9.0776345    9.0776345    9.0776345    27.382462 
Loop time of 3591.96 on 16 procs for 100000 steps with 1000 atoms

Performance: 2.405 ns/day, 9.978 hours/ns, 27.840 timesteps/s
94.3% CPU use with 16 MPI tasks x no OpenMP threads

MPI task timing breakdown:
Section |  min time  |  avg time  |  max time  |%varavg| %total
---------------------------------------------------------------
Pair    | 237.3      | 244.8      | 260.13     |  32.7 |  6.82
Neigh   | 78.747     | 82.067     | 86.412     |  22.1 |  2.28
Comm    | 80.596     | 100.33     | 110.82     |  68.1 |  2.79
Output  | 2230.8     | 2289       | 3155.7     | 467.7 | 63.73
Modify  | 8.213      | 874.88     | 933.14     | 756.5 | 24.36
Other   |            | 0.8445     |            |       |  0.02

Nlocal:    62.5 ave 65 max 57 min
Histogram: 1 0 1 2 0 2 0 3 2 5
Nghost:    1907 ave 1919 max 1899 min
Histogram: 3 1 4 0 3 0 1 1 1 2
Neighs:    0 ave 0 max 0 min
Histogram: 16 0 0 0 0 0 0 0 0 0
FullNghs:  19713.8 ave 20795 max 17842 min
Histogram: 1 0 2 1 2 1 1 2 2 4

Total # of neighbors = 315420
Ave neighs/atom = 315.42
Neighbor list builds = 100000
Dangerous builds not checked
Total wall time: 9:43:46
