LAMMPS (16 Mar 2018)
Reading data file ...
  orthogonal box = (-4.73727 -4.73727 -4.73727) to (4.73727 4.73727 4.73727)
  2 by 2 by 4 MPI processor grid
  reading atoms ...
  1000 atoms
Reading potential file /home/fs01/ajm529/lammps-16Mar18/potentials/sw_potentials/AG/eps2.23.sw with DATE: 2008-01-29
Neighbor list info ...
  update every 1 steps, delay 0 steps, check no
  max neighbors/atom: 2000, page size: 100000
  master list distance cutoff = 3.836
  ghost atom cutoff = 3.836
  binsize = 1.918, bins = 5 5 5
  1 neighbor lists, perpetual/occasional/extra = 1 0 0
  (1) pair sw, perpetual
      attributes: full, newton on
      pair build: full/bin/atomonly
      stencil: full/bin/3d
      bin: standard
Setting up Verlet run ...
  Unit style    : real
  Current step  : 0
  Time step     : 1
Per MPI rank memory allocation (min/avg/max) = 3.517 | 3.585 | 4.576 Mbytes
Step Temp E_pair E_mol TotEng Press Volume Lx Ly Lz S/CPU 
       0          300   -10089.821            0   -9196.4721   -30067.882    850.49824    9.4745329    9.4745329    9.4745329            0 
     100    324.46654   -10168.838            0   -9202.6316   -41983.165     848.5486    9.4672877    9.4672877    9.4672877    44.871264 
     200    319.40571   -10167.877            0   -9216.7409   -44587.861    842.43819    9.4445082    9.4445082    9.4445082    57.371931 
     300    328.71445   -10217.125            0   -9238.2694    -33059.45    832.73434    9.4081051    9.4081051    9.4081051    31.666561 
     400    333.87338   -10255.738            0   -9261.5197   -7154.6384    821.25778    9.3646848    9.3646848    9.3646848     43.21978 
     500    334.64602   -10279.001            0   -9282.4819   -6144.7317    810.34501    9.3230208    9.3230208    9.3230208    49.797421 
     600    341.84197   -10317.525            0   -9299.5779    2973.6333    801.04151    9.2872045    9.2872045    9.2872045    46.025867 
     700    333.32922   -10307.163            0   -9314.5651    24092.479    793.81727    9.2592011    9.2592011    9.2592011    57.074369 
     800    334.39565   -10327.455            0   -9331.6814    13896.735    789.11519    9.2408829    9.2408829    9.2408829    53.069401 
     900    329.22256   -10331.552            0   -9351.1832    16232.237    786.52338    9.2307548    9.2307548    9.2307548    49.599479 
    1000    328.58517   -10351.592            0   -9373.1211    16976.531    785.44429    9.2265314    9.2265314    9.2265314    51.019282 
Loop time of 21.2367 on 16 procs for 1000 steps with 1000 atoms

Performance: 4.068 ns/day, 5.899 hours/ns, 47.088 timesteps/s
94.7% CPU use with 16 MPI tasks x no OpenMP threads

MPI task timing breakdown:
Section |  min time  |  avg time  |  max time  |%varavg| %total
---------------------------------------------------------------
Pair    | 2.1722     | 2.2684     | 2.4251     |   4.9 | 10.68
Neigh   | 0.76813    | 0.79557    | 0.85553    |   2.5 |  3.75
Comm    | 0.81186    | 1.0289     | 1.1534     |   9.3 |  4.84
Output  | 11.942     | 12.266     | 17.061     |  35.4 | 57.76
Modify  | 0.073623   | 4.8694     | 5.1937     |  56.1 | 22.93
Other   |            | 0.008558   |            |       |  0.04

Nlocal:    62.5 ave 70 max 56 min
Histogram: 1 1 3 1 2 3 3 1 0 1
Nghost:    1849.12 ave 1865 max 1834 min
Histogram: 3 0 2 1 2 3 1 0 2 2
Neighs:    0 ave 0 max 0 min
Histogram: 16 0 0 0 0 0 0 0 0 0
FullNghs:  18785.6 ave 21125 max 16637 min
Histogram: 1 1 1 2 3 4 2 1 0 1

Total # of neighbors = 300570
Ave neighs/atom = 300.57
Neighbor list builds = 1000
Dangerous builds not checked
Setting up Verlet run ...
  Unit style    : real
  Current step  : 1000
  Time step     : 1
Per MPI rank memory allocation (min/avg/max) = 3.767 | 4.376 | 4.58 Mbytes
Step Temp E_pair E_mol TotEng Press Volume Lx Ly Lz S/CPU 
    1000    328.58517   -10351.592            0   -9373.1211    16976.531    785.44429    9.2265314    9.2265314    9.2265314            0 
    1100    331.59635   -10381.904            0   -9394.4665    7251.7764    785.78155    9.2278518    9.2278518    9.2278518    52.578179 
    1200    330.48713   -10399.927            0    -9415.793   -2084.5954    786.83239    9.2319634    9.2319634    9.2319634    40.741221 
    1300     322.4383   -10397.497            0   -9437.3304     13320.09    787.98919    9.2364855    9.2364855    9.2364855    47.823237 
    1400    312.38912   -10386.042            0   -9455.8007    2457.6074     789.2818    9.2415332    9.2415332    9.2415332    44.120443 
    1500     318.7753   -10424.021            0   -9474.7627     380.2887    790.25353    9.2453243    9.2453243    9.2453243    50.832993 
    1600    305.65062   -10403.325            0   -9493.1495     3070.437    790.97028    9.2481186    9.2481186    9.2481186    46.395068 
    1700    307.35788   -10426.515            0   -9511.2555    864.63315    791.42938    9.2499075    9.2499075    9.2499075    49.017081 
    1800     303.5058   -10429.913            0    -9526.125   -7850.6003    791.59265    9.2505435    9.2505435    9.2505435    33.568983 
    1900    303.49427   -10445.052            0   -9541.2984   -8709.8133    791.32596    9.2495045    9.2495045    9.2495045     31.26417 
    2000    316.45961   -10498.655            0   -9556.2921   -12278.509    790.37693    9.2458055    9.2458055    9.2458055    44.161986 
Loop time of 23.3186 on 16 procs for 1000 steps with 1000 atoms

Performance: 3.705 ns/day, 6.477 hours/ns, 42.884 timesteps/s
94.7% CPU use with 16 MPI tasks x no OpenMP threads

MPI task timing breakdown:
Section |  min time  |  avg time  |  max time  |%varavg| %total
---------------------------------------------------------------
Pair    | 2.2868     | 2.4173     | 2.6963     |   6.5 | 10.37
Neigh   | 0.76932    | 0.80933    | 0.8917     |   3.1 |  3.47
Comm    | 0.73343    | 1.0948     | 1.2503     |  12.2 |  4.69
Output  | 13.58      | 13.919     | 18.944     |  34.8 | 59.69
Modify  | 0.044493   | 5.0694     | 5.4087     |  57.6 | 21.74
Other   |            | 0.008628   |            |       |  0.04

Nlocal:    62.5 ave 65 max 58 min
Histogram: 2 0 1 0 1 2 0 3 5 2
Nghost:    1842.44 ave 1862 max 1823 min
Histogram: 3 0 0 3 1 4 1 2 0 2
Neighs:    0 ave 0 max 0 min
Histogram: 16 0 0 0 0 0 0 0 0 0
FullNghs:  18668.8 ave 19547 max 17334 min
Histogram: 2 0 1 0 1 3 2 1 4 2

Total # of neighbors = 298700
Ave neighs/atom = 298.7
Neighbor list builds = 1000
Dangerous builds not checked
Setting up Verlet run ...
  Unit style    : real
  Current step  : 2000
  Time step     : 1
Per MPI rank memory allocation (min/avg/max) = 4.576 | 4.578 | 4.58 Mbytes
Step Temp E_pair E_mol TotEng Press Volume Lx Ly Lz S/CPU 
    2000    316.45961   -10498.655            0   -9556.2921   -12278.509    790.37693    9.2458055    9.2458055    9.2458055            0 
    2100    309.21188   -10492.367            0   -9571.5868   -19585.799    788.42491    9.2381876    9.2381876    9.2381876    53.276495 
    2200     302.9178   -10488.264            0   -9586.2261   -337.45344    785.51538    9.2268097    9.2268097    9.2268097    45.025295 
    2300    297.58738   -10485.189            0   -9599.0249    8691.5414     782.4066    9.2146215    9.2146215    9.2146215     46.23241 
    2400    316.53437   -10553.712            0    -9611.127    7277.5849    779.82774    9.2044864    9.2044864    9.2044864    51.772065 
    2500     301.7784   -10521.492            0   -9622.8477    12038.517    778.27887    9.1983885    9.1983885    9.1983885    39.105141 
    2600    295.87323     -10515.7            0   -9634.6396    4908.0663    777.64433    9.1958879    9.1958879    9.1958879     52.05789 
    2700    298.90424    -10534.98            0   -9644.8941    18368.007    777.95473    9.1971113    9.1971113    9.1971113    39.427995 
    2800    289.38669   -10517.259            0   -9655.5148    11992.933    779.26735    9.2022811    9.2022811    9.2022811     45.60762 
    2900    293.01117   -10536.193            0   -9663.6557    9247.3942     781.3928    9.2106399    9.2106399    9.2106399    51.201766 
    3000    291.39178   -10536.645            0   -9668.9297   -7585.2157    783.56453     9.219165     9.219165     9.219165    35.724677 
Loop time of 22.1518 on 16 procs for 1000 steps with 1000 atoms

Performance: 3.900 ns/day, 6.153 hours/ns, 45.143 timesteps/s
94.7% CPU use with 16 MPI tasks x no OpenMP threads

MPI task timing breakdown:
Section |  min time  |  avg time  |  max time  |%varavg| %total
---------------------------------------------------------------
Pair    | 2.2983     | 2.4589     | 2.7051     |   6.4 | 11.10
Neigh   | 0.77197    | 0.81419    | 0.87217    |   3.0 |  3.68
Comm    | 0.75673    | 1.0607     | 1.2635     |  12.2 |  4.79
Output  | 12.504     | 12.835     | 17.747     |  35.4 | 57.94
Modify  | 0.062152   | 4.9747     | 5.3062     |  56.9 | 22.46
Other   |            | 0.008698   |            |       |  0.04

Nlocal:    62.5 ave 68 max 58 min
Histogram: 1 1 3 2 2 0 3 2 0 2
Nghost:    1866.25 ave 1888 max 1845 min
Histogram: 2 0 3 1 2 2 2 3 0 1
Neighs:    0 ave 0 max 0 min
Histogram: 16 0 0 0 0 0 0 0 0 0
FullNghs:  18833.5 ave 20437 max 17503 min
Histogram: 2 1 4 0 2 1 3 1 0 2

Total # of neighbors = 301336
Ave neighs/atom = 301.336
Neighbor list builds = 1000
Dangerous builds not checked
Setting up Verlet run ...
  Unit style    : real
  Current step  : 3000
  Time step     : 1
Per MPI rank memory allocation (min/avg/max) = 4.576 | 4.578 | 4.58 Mbytes
Step Temp E_pair E_mol TotEng Press Volume Lx Ly Lz S/CPU 
    3000    291.39178   -10536.645            0   -9668.9297   -7585.2157    783.56453     9.219165     9.219165     9.219165            0 
    3100    284.60109    -10521.55            0   -9674.0561   -8251.5434    785.21655    9.2256395    9.2256395    9.2256395    46.413313 
    3200    296.37384   -10559.475            0   -9676.9246   -6546.1024    786.26707     9.229752     9.229752     9.229752     41.35187 
    3300    299.23329   -10570.212            0   -9679.1466   -11559.735    786.46365    9.2305211    9.2305211    9.2305211    46.179269 
    3400    294.92638   -10556.685            0   -9678.4451    -5818.078    785.83699    9.2280688    9.2280688    9.2280688    48.863597 
    3500    294.96165   -10553.167            0   -9674.8218   -10427.134    784.48961    9.2227917    9.2227917    9.2227917    43.354619 
    3600    292.47093   -10541.446            0   -9670.5179   -10623.597     782.3911    9.2145607    9.2145607    9.2145607    48.345736 
    3700    297.81029    -10550.49            0   -9663.6615   -1760.7542    780.11252    9.2056067    9.2056067    9.2056067    36.927495 
    3800    300.74354   -10550.461            0   -9654.8985   -3379.5762    777.80998    9.1965409    9.1965409    9.1965409    43.664835 
    3900    300.46326   -10541.883            0   -9647.1548    19251.893    775.78177    9.1885403    9.1885403    9.1885403    48.552349 
    4000    298.45026   -10527.117            0   -9638.3832    24618.201    774.65095    9.1840735    9.1840735    9.1840735    51.460432 
Loop time of 22.1609 on 16 procs for 1000 steps with 1000 atoms

Performance: 3.899 ns/day, 6.156 hours/ns, 45.125 timesteps/s
94.7% CPU use with 16 MPI tasks x no OpenMP threads

MPI task timing breakdown:
Section |  min time  |  avg time  |  max time  |%varavg| %total
---------------------------------------------------------------
Pair    | 2.3101     | 2.4503     | 2.6233     |   5.1 | 11.06
Neigh   | 0.77344    | 0.81325    | 0.88344    |   2.8 |  3.67
Comm    | 0.81922    | 1.0622     | 1.2318     |   9.8 |  4.79
Output  | 11.518     | 11.912     | 17.766     |  43.8 | 53.75
Modify  | 0.059707   | 5.9144     | 6.3095     |  62.2 | 26.69
Other   |            | 0.0086     |            |       |  0.04

Nlocal:    62.5 ave 66 max 57 min
Histogram: 1 1 0 0 2 3 3 3 2 1
Nghost:    1859.94 ave 1874 max 1847 min
Histogram: 1 1 5 0 2 1 2 2 1 1
Neighs:    0 ave 0 max 0 min
Histogram: 16 0 0 0 0 0 0 0 0 0
FullNghs:  19041.8 ave 20284 max 17198 min
Histogram: 1 1 0 0 2 2 5 2 2 1

Total # of neighbors = 304668
Ave neighs/atom = 304.668
Neighbor list builds = 1000
Dangerous builds not checked
Setting up Verlet run ...
  Unit style    : real
  Current step  : 4000
  Time step     : 1
Per MPI rank memory allocation (min/avg/max) = 4.576 | 4.578 | 4.58 Mbytes
Step Temp E_pair E_mol TotEng Press Volume Lx Ly Lz S/CPU 
    4000    298.45026   -10527.117            0   -9638.3832    24618.201    774.65095    9.1840735    9.1840735    9.1840735            0 
    4100    309.30109   -10553.843            0   -9632.7975    969.92693    775.03562    9.1855935    9.1855935    9.1855935    45.394336 
    4200    303.81123   -10530.476            0   -9625.7782    10636.089    776.15885    9.1900288    9.1900288    9.1900288    43.173012 
    4300    290.70765    -10486.49            0   -9620.8119     10589.46    778.04372     9.197462     9.197462     9.197462    37.098661 
    4400    297.48283   -10501.424            0   -9615.5708   -4407.2816    780.05303    9.2053727    9.2053727    9.2053727     46.80052 
    4500    293.25361   -10483.285            0   -9610.0256    2778.4979    781.75368    9.2120576    9.2120576    9.2120576    45.701387 
    4600    305.96464   -10516.496            0   -9605.3852    5296.1172    783.61972    9.2193815    9.2193815    9.2193815    34.227321 
    4700     309.9408   -10522.593            0   -9599.6425    11453.511    785.69593    9.2275166    9.2275166    9.2275166    57.001953 
    4800    309.33419   -10516.197            0   -9595.0529   -5941.0843    787.92179    9.2362221    9.2362221    9.2362221    44.054642 
    4900    291.19758   -10455.974            0   -9588.8373   -12696.602    789.82647    9.2436585    9.2436585    9.2436585    38.015387 
    5000    300.43694    -10477.78            0   -9583.1297   -23650.451    790.99203    9.2482033    9.2482033    9.2482033    37.800894 
Loop time of 23.7614 on 16 procs for 1000 steps with 1000 atoms

Performance: 3.636 ns/day, 6.600 hours/ns, 42.085 timesteps/s
94.7% CPU use with 16 MPI tasks x no OpenMP threads

MPI task timing breakdown:
Section |  min time  |  avg time  |  max time  |%varavg| %total
---------------------------------------------------------------
Pair    | 2.2604     | 2.4273     | 2.7759     |   7.5 | 10.22
Neigh   | 0.75462    | 0.80591    | 0.91109    |   3.9 |  3.39
Comm    | 0.6513     | 1.1048     | 1.3232     |  14.3 |  4.65
Output  | 13.321     | 13.702     | 19.361     |  39.5 | 57.66
Modify  | 0.053025   | 5.7127     | 6.0944     |  61.1 | 24.04
Other   |            | 0.008751   |            |       |  0.04

Nlocal:    62.5 ave 67 max 58 min
Histogram: 1 2 1 3 1 2 3 0 0 3
Nghost:    1842.12 ave 1867 max 1823 min
Histogram: 1 2 1 4 2 1 4 0 0 1
Neighs:    0 ave 0 max 0 min
Histogram: 16 0 0 0 0 0 0 0 0 0
FullNghs:  18637 ave 20190 max 17367 min
Histogram: 3 1 2 2 1 1 3 0 0 3

Total # of neighbors = 298192
Ave neighs/atom = 298.192
Neighbor list builds = 1000
Dangerous builds not checked
Setting up Verlet run ...
  Unit style    : real
  Current step  : 5000
  Time step     : 1
Per MPI rank memory allocation (min/avg/max) = 4.576 | 4.578 | 4.58 Mbytes
Step Temp E_pair E_mol TotEng Press Volume Lx Ly Lz S/CPU 
    5000    300.43694    -10477.78            0   -9583.1297   -23650.451    790.99203    9.2482033    9.2482033    9.2482033            0 
    5100    292.64974   -10449.116            0   -9577.6553   -8796.5293     791.0644    9.2484854    9.2484854    9.2484854    34.607651 
    5200    297.51984   -10456.742            0   -9570.7787    5905.5847     790.6715     9.246954     9.246954     9.246954    46.593378 
    5300    298.85346   -10454.968            0    -9565.033    6941.2169    790.51528    9.2463449    9.2463449    9.2463449    48.581963 
    5400    302.10652   -10459.465            0   -9559.8438    1377.7128    790.77924     9.247374     9.247374     9.247374    43.641452 
    5500    306.01424   -10465.268            0     -9554.01   -9864.3944    791.13659    9.2487667    9.2487667    9.2487667    51.269298 
    5600    304.02421   -10455.333            0   -9550.0008   -25083.524    791.02632     9.248337     9.248337     9.248337    45.351486 
    5700    313.25892   -10479.918            0   -9547.0866    1306.5881    790.32357    9.2455974    9.2455974    9.2455974    39.969352 
    5800    309.98945   -10466.196            0   -9543.1005   -2801.7336    789.88297     9.243879     9.243879     9.243879    37.534112 
    5900    298.64652   -10431.446            0   -9542.1277   -1416.7042    789.35698    9.2418266    9.2418266    9.2418266    42.849555 
    6000    315.04811   -10482.152            0   -9543.9927   -10749.497    788.45997    9.2383246    9.2383246    9.2383246    42.040984 
Loop time of 23.4196 on 16 procs for 1000 steps with 1000 atoms

Performance: 3.689 ns/day, 6.505 hours/ns, 42.699 timesteps/s
94.6% CPU use with 16 MPI tasks x no OpenMP threads

MPI task timing breakdown:
Section |  min time  |  avg time  |  max time  |%varavg| %total
---------------------------------------------------------------
Pair    | 2.2511     | 2.3765     | 2.6777     |   6.6 | 10.15
Neigh   | 0.76573    | 0.80142    | 0.88361    |   2.9 |  3.42
Comm    | 0.69097    | 1.0769     | 1.2367     |  12.2 |  4.60
Output  | 13.638     | 13.981     | 19.064     |  35.1 | 59.70
Modify  | 0.093657   | 5.1752     | 5.5201     |  57.7 | 22.10
Other   |            | 0.008541   |            |       |  0.04

Nlocal:    62.5 ave 67 max 55 min
Histogram: 1 1 0 2 0 3 1 3 2 3
Nghost:    1845.69 ave 1862 max 1828 min
Histogram: 1 2 1 0 3 2 3 2 0 2
Neighs:    0 ave 0 max 0 min
Histogram: 16 0 0 0 0 0 0 0 0 0
FullNghs:  18729.2 ave 20011 max 16406 min
Histogram: 1 1 0 2 1 0 3 2 3 3

Total # of neighbors = 299668
Ave neighs/atom = 299.668
Neighbor list builds = 1000
Dangerous builds not checked
Setting up Verlet run ...
  Unit style    : real
  Current step  : 6000
  Time step     : 1
Per MPI rank memory allocation (min/avg/max) = 4.576 | 4.578 | 4.58 Mbytes
Step Temp E_pair E_mol TotEng Press Volume Lx Ly Lz S/CPU 
    6000    315.04811   -10482.152            0   -9543.9927   -10749.497    788.45997    9.2383246    9.2383246    9.2383246            0 
    6100    310.11411   -10471.724            0   -9548.2571    10111.603    787.32687     9.233897     9.233897     9.233897    40.869825 
    6200    312.97779   -10489.009            0   -9557.0142    14739.649    786.25564    9.2297072    9.2297072    9.2297072    45.013419 
    6300     305.7249   -10479.672            0   -9569.2759    2748.5947    785.87951    9.2282352    9.2282352    9.2282352    52.617159 
    6400    304.78434   -10492.508            0   -9584.9126    226.40461    785.80916    9.2279598    9.2279598    9.2279598    42.703591 
    6500    295.88874   -10480.058            0   -9598.9517    1545.9206    785.79573    9.2279073    9.2279073    9.2279073    53.362692 
    6600     295.6935   -10491.895            0   -9611.3701   -2326.9912    785.87977    9.2282362    9.2282362    9.2282362    52.410149 
    6700    306.44561   -10533.568            0   -9621.0255   -5428.2018    785.89747    9.2283055    9.2283055    9.2283055    46.455058 
    6800     298.8526   -10517.734            0   -9627.8023    -4273.735    785.76956    9.2278048    9.2278048    9.2278048    55.027036 
    6900    294.22794   -10508.844            0    -9632.683   -8832.2925    785.25965    9.2258083    9.2258083    9.2258083    47.136625 
    7000    304.65309   -10544.533            0   -9637.3276    -8073.601     784.3141    9.2221038    9.2221038    9.2221038    36.721887 
Loop time of 21.5072 on 16 procs for 1000 steps with 1000 atoms

Performance: 4.017 ns/day, 5.974 hours/ns, 46.496 timesteps/s
94.7% CPU use with 16 MPI tasks x no OpenMP threads

MPI task timing breakdown:
Section |  min time  |  avg time  |  max time  |%varavg| %total
---------------------------------------------------------------
Pair    | 2.3179     | 2.4213     | 2.6176     |   4.5 | 11.26
Neigh   | 0.78182    | 0.80806    | 0.87076    |   2.3 |  3.76
Comm    | 0.81185    | 1.0718     | 1.2009     |   8.5 |  4.98
Output  | 11.708     | 12.049     | 17.103     |  37.6 | 56.02
Modify  | 0.09456    | 5.1488     | 5.4902     |  57.5 | 23.94
Other   |            | 0.00862    |            |       |  0.04

Nlocal:    62.5 ave 70 max 56 min
Histogram: 1 2 2 1 2 3 2 1 1 1
Nghost:    1856.31 ave 1871 max 1839 min
Histogram: 2 2 1 1 1 1 1 3 1 3
Neighs:    0 ave 0 max 0 min
Histogram: 16 0 0 0 0 0 0 0 0 0
FullNghs:  18817.9 ave 21218 max 16889 min
Histogram: 2 3 0 2 2 2 2 1 1 1

Total # of neighbors = 301086
Ave neighs/atom = 301.086
Neighbor list builds = 1000
Dangerous builds not checked
Setting up Verlet run ...
  Unit style    : real
  Current step  : 7000
  Time step     : 1
Per MPI rank memory allocation (min/avg/max) = 4.576 | 4.578 | 4.58 Mbytes
Step Temp E_pair E_mol TotEng Press Volume Lx Ly Lz S/CPU 
    7000    304.65309   -10544.533            0   -9637.3276    -8073.601     784.3141    9.2221038    9.2221038    9.2221038            0 
    7100    294.79168   -10516.261            0   -9638.4216    4451.8656     782.8239    9.2162595    9.2162595    9.2162595    43.473577 
    7200    301.27294   -10536.595            0   -9639.4553   -4221.2374    781.28934    9.2102334    9.2102334    9.2102334    35.563163 
    7300     289.2436   -10499.855            0    -9638.537   -14584.991    779.79698    9.2043654    9.2043654    9.2043654    38.850665 
    7400    306.88415   -10551.332            0   -9637.4835    12423.393    778.42715    9.1989726    9.1989726    9.1989726    48.508084 
    7500    302.45579   -10533.816            0   -9633.1544    7769.6409     777.4837    9.1952547    9.1952547    9.1952547    47.409625 
    7600    298.82745   -10518.976            0   -9629.1186     -1948.44    776.81902    9.1926336    9.1926336    9.1926336    41.782764 
    7700    295.13918    -10502.55            0   -9623.6758    8639.4194    776.17201    9.1900807    9.1900807    9.1900807    39.241432 
    7800    297.33137   -10501.465            0   -9616.0633    6232.5114    775.83375    9.1887455    9.1887455    9.1887455    50.491982 
    7900    294.55529   -10484.324            0   -9607.1889    11456.935    775.72277    9.1883073    9.1883073    9.1883073    44.681171 
    8000    298.32342   -10485.771            0   -9597.4151     12902.89     776.3503    9.1907843    9.1907843    9.1907843    49.334523 
Loop time of 23.0441 on 16 procs for 1000 steps with 1000 atoms

Performance: 3.749 ns/day, 6.401 hours/ns, 43.395 timesteps/s
94.7% CPU use with 16 MPI tasks x no OpenMP threads

MPI task timing breakdown:
Section |  min time  |  avg time  |  max time  |%varavg| %total
---------------------------------------------------------------
Pair    | 2.3019     | 2.4482     | 2.5963     |   4.9 | 10.62
Neigh   | 0.76889    | 0.80407    | 0.86919    |   2.9 |  3.49
Comm    | 0.92387    | 1.119      | 1.2983     |   9.5 |  4.86
Output  | 12.671     | 13.046     | 18.601     |  39.7 | 56.61
Modify  | 0.063067   | 5.6187     | 5.9933     |  60.5 | 24.38
Other   |            | 0.008618   |            |       |  0.04

Nlocal:    62.5 ave 67 max 57 min
Histogram: 1 0 0 4 1 3 1 1 2 3
Nghost:    1862.44 ave 1886 max 1842 min
Histogram: 2 1 4 0 1 2 2 2 0 2
Neighs:    0 ave 0 max 0 min
Histogram: 16 0 0 0 0 0 0 0 0 0
FullNghs:  19011.6 ave 20457 max 17282 min
Histogram: 1 0 2 3 2 2 0 3 1 2

Total # of neighbors = 304186
Ave neighs/atom = 304.186
Neighbor list builds = 1000
Dangerous builds not checked
Setting up Verlet run ...
  Unit style    : real
  Current step  : 8000
  Time step     : 1
Per MPI rank memory allocation (min/avg/max) = 4.576 | 4.578 | 4.58 Mbytes
Step Temp E_pair E_mol TotEng Press Volume Lx Ly Lz S/CPU 
    8000    298.32342   -10485.771            0   -9597.4151     12902.89     776.3503    9.1907843    9.1907843    9.1907843            0 
    8100     299.6516   -10478.768            0   -9586.4567    14806.076    777.95315    9.1971051    9.1971051    9.1971051    40.464544 
    8200    297.66637   -10462.096            0   -9575.6969    1648.0006    780.21145    9.2059958    9.2059958    9.2059958    34.001999 
    8300    304.85891   -10475.133            0   -9567.3156    7855.3965    782.86357    9.2164151    9.2164151    9.2164151    48.168527 
    8400    313.18556   -10492.887            0   -9560.2736   -4284.6843    785.46482    9.2266118    9.2266118    9.2266118    54.855854 
    8500    309.99901   -10478.444            0     -9555.32   -13070.344    787.80249     9.235756     9.235756     9.235756    30.383523 
    8600    304.91381   -10461.841            0   -9553.8595   -688.78934    789.62579    9.2428756    9.2428756    9.2428756    45.245548 
    8700     295.8702   -10432.526            0   -9551.4746   -16516.937    790.91583    9.2479063    9.2479063    9.2479063    36.613953 
    8800    304.26949   -10457.136            0   -9551.0733    -2417.538    791.14255    9.2487899    9.2487899    9.2487899    50.342909 
    8900    302.41019   -10451.557            0   -9551.0311    -22089.21    790.60689    9.2467021    9.2467021    9.2467021    48.496785 
    9000    298.53264   -10438.969            0   -9549.9898   -150.21045    789.10687    9.2408504    9.2408504    9.2408504    44.437879 
Loop time of 23.8427 on 16 procs for 1000 steps with 1000 atoms

Performance: 3.624 ns/day, 6.623 hours/ns, 41.942 timesteps/s
94.6% CPU use with 16 MPI tasks x no OpenMP threads

MPI task timing breakdown:
Section |  min time  |  avg time  |  max time  |%varavg| %total
---------------------------------------------------------------
Pair    | 2.2416     | 2.4011     | 2.7523     |   7.5 | 10.07
Neigh   | 0.76622    | 0.79902    | 0.89855    |   3.6 |  3.35
Comm    | 0.65996    | 1.1087     | 1.3007     |  13.9 |  4.65
Output  | 13.339     | 13.726     | 19.45      |  39.9 | 57.57
Modify  | 0.072649   | 5.7993     | 6.1869     |  61.4 | 24.32
Other   |            | 0.008546   |            |       |  0.04

Nlocal:    62.5 ave 67 max 58 min
Histogram: 1 1 3 1 2 1 4 0 2 1
Nghost:    1850.25 ave 1867 max 1835 min
Histogram: 2 1 4 1 0 4 0 0 0 4
Neighs:    0 ave 0 max 0 min
Histogram: 16 0 0 0 0 0 0 0 0 0
FullNghs:  18703.2 ave 19954 max 17147 min
Histogram: 1 1 2 1 2 1 2 3 1 2

Total # of neighbors = 299252
Ave neighs/atom = 299.252
Neighbor list builds = 1000
Dangerous builds not checked
Setting up Verlet run ...
  Unit style    : real
  Current step  : 9000
  Time step     : 1
Per MPI rank memory allocation (min/avg/max) = 4.576 | 4.578 | 4.58 Mbytes
Step Temp E_pair E_mol TotEng Press Volume Lx Ly Lz S/CPU 
    9000    298.53264   -10438.969            0   -9549.9898   -150.21045    789.10687    9.2408504    9.2408504    9.2408504            0 
    9100    289.80805   -10413.511            0   -9550.5123   -11805.351    787.07646    9.2329179    9.2329179    9.2329179     47.87142 
    9200    299.99304   -10444.107            0    -9550.779   -6197.3146    784.62839    9.2233355    9.2233355    9.2233355    37.765687 
    9300    306.58291   -10464.732            0   -9551.7801    8098.1378    781.74723    9.2120323    9.2120323    9.2120323    47.101112 
    9400     308.6941   -10472.588            0   -9553.3495   -1735.5026    778.90359     9.200849     9.200849     9.200849    52.199288 
    9500    296.37842   -10437.327            0   -9554.7625    32000.223    776.12829    9.1899081    9.1899081    9.1899081    48.554921 
    9600    303.52576   -10460.723            0   -9556.8756     31909.24    774.65525    9.1840906    9.1840906    9.1840906    48.684301 
    9700    301.09101   -10457.368            0   -9560.7702     10787.88    775.18924    9.1862003    9.1862003    9.1862003    46.842129 
    9800    297.31071   -10450.632            0   -9565.2913    27254.901    776.99806    9.1933398    9.1933398    9.1933398    40.991573 
    9900    305.41133   -10479.315            0   -9569.8525    770.94091    779.96978    9.2050452    9.2050452    9.2050452    41.180412 
   10000    295.71799   -10454.777            0   -9574.1796    5553.4355    783.64849    9.2194943    9.2194943    9.2194943    42.989564 
Loop time of 22.2181 on 16 procs for 1000 steps with 1000 atoms

Performance: 3.889 ns/day, 6.172 hours/ns, 45.008 timesteps/s
94.7% CPU use with 16 MPI tasks x no OpenMP threads

MPI task timing breakdown:
Section |  min time  |  avg time  |  max time  |%varavg| %total
---------------------------------------------------------------
Pair    | 2.3021     | 2.4404     | 2.7202     |   6.8 | 10.98
Neigh   | 0.7705     | 0.80484    | 0.88684    |   3.3 |  3.62
Comm    | 0.75585    | 1.1175     | 1.2874     |  12.7 |  5.03
Output  | 11.948     | 12.317     | 17.79      |  40.3 | 55.43
Modify  | 0.056579   | 5.5302     | 5.8995     |  60.1 | 24.89
Other   |            | 0.008626   |            |       |  0.04

Nlocal:    62.5 ave 67 max 58 min
Histogram: 1 0 2 4 1 3 2 1 0 2
Nghost:    1864.62 ave 1880 max 1849 min
Histogram: 1 0 2 4 3 1 2 0 0 3
Neighs:    0 ave 0 max 0 min
Histogram: 16 0 0 0 0 0 0 0 0 0
FullNghs:  18838.9 ave 20331 max 17544 min
Histogram: 1 1 4 1 2 4 0 1 0 2

Total # of neighbors = 301422
Ave neighs/atom = 301.422
Neighbor list builds = 1000
Dangerous builds not checked
Setting up Verlet run ...
  Unit style    : real
  Current step  : 10000
  Time step     : 1
Per MPI rank memory allocation (min/avg/max) = 4.576 | 4.578 | 4.58 Mbytes
Step Temp E_pair E_mol TotEng Press Volume Lx Ly Lz S/CPU 
   10000    295.71799   -10454.777            0   -9574.1796    5553.4355    783.64849    9.2194943    9.2194943    9.2194943            0 
   10100    295.33044   -10457.352            0   -9577.9086   -6724.2017    787.47437    9.2344736    9.2344736    9.2344736    50.001009 
   10200    302.09788   -10481.707            0   -9582.1111   -17691.279    790.72363    9.2471572    9.2471572    9.2471572    48.422119 
   10300    298.42059   -10473.605            0   -9584.9595   -8765.5852    792.89799    9.2556255    9.2556255    9.2556255    41.039121 
   10400    288.68382   -10445.491            0   -9585.8403   -15550.318    793.58393    9.2582937    9.2582937    9.2582937    43.411472 
   10500    302.94391   -10490.194            0   -9588.0789   -9257.4914    792.90824    9.2556654    9.2556654    9.2556654    35.983745 
   10600    300.63723   -10483.832            0   -9588.5855   -18194.675    791.72863    9.2510732    9.2510732    9.2510732     47.08522 
   10700    309.61859   -10512.043            0   -9590.0518   -1366.1344    789.57537    9.2426789    9.2426789    9.2426789    50.137222 
   10800      296.721   -10473.264            0   -9589.6796   -886.21144    787.21225    9.2334489    9.2334489    9.2334489    36.617939 
   10900    301.56453    -10489.03            0   -9591.0227   -6093.1796     785.0632    9.2250389    9.2250389    9.2250389    57.347431 
   11000    311.21842   -10518.642            0    -9591.887    12213.008    783.22343    9.2178271    9.2178271    9.2178271    52.966667 
Loop time of 22.0654 on 16 procs for 1000 steps with 1000 atoms

Performance: 3.916 ns/day, 6.129 hours/ns, 45.320 timesteps/s
94.7% CPU use with 16 MPI tasks x no OpenMP threads

MPI task timing breakdown:
Section |  min time  |  avg time  |  max time  |%varavg| %total
---------------------------------------------------------------
Pair    | 2.2211     | 2.3871     | 2.6454     |   6.8 | 10.82
Neigh   | 0.75883    | 0.80222    | 0.88932    |   3.7 |  3.64
Comm    | 0.72915    | 1.0743     | 1.279      |  13.1 |  4.87
Output  | 12.372     | 12.71      | 17.721     |  36.3 | 57.60
Modify  | 0.071577   | 5.083      | 5.4213     |  57.4 | 23.04
Other   |            | 0.008546   |            |       |  0.04

Nlocal:    62.5 ave 67 max 59 min
Histogram: 3 3 1 0 0 4 1 1 0 3
Nghost:    1849.81 ave 1870 max 1828 min
Histogram: 3 3 0 1 1 0 1 1 2 4
Neighs:    0 ave 0 max 0 min
Histogram: 16 0 0 0 0 0 0 0 0 0
FullNghs:  18859 ave 20375 max 17674 min
Histogram: 3 2 2 0 3 1 1 1 0 3

Total # of neighbors = 301744
Ave neighs/atom = 301.744
Neighbor list builds = 1000
Dangerous builds not checked
Setting up Verlet run ...
  Unit style    : real
  Current step  : 11000
  Time step     : 1
Per MPI rank memory allocation (min/avg/max) = 4.576 | 4.578 | 4.58 Mbytes
Step Temp E_pair E_mol TotEng Press Volume Lx Ly Lz S/CPU 
   11000    311.21842   -10518.642            0    -9591.887    12213.008    783.22343    9.2178271    9.2178271    9.2178271            0 
   11100    302.66688    -10496.17            0   -9594.8794    7888.0634    781.99017    9.2129864    9.2129864    9.2129864    41.911354 
   11200    302.72041   -10500.819            0    -9599.369   -5939.1608    781.71345    9.2118996    9.2118996    9.2118996    36.542994 
   11300    295.05245   -10484.149            0   -9605.5335    4727.5248    782.02027    9.2131046    9.2131046    9.2131046     32.18336 
   11400    294.79606   -10493.258            0   -9615.4055    5189.7253    782.63278    9.2155094    9.2155094    9.2155094    45.831211 
   11500     284.4096   -10473.433            0   -9626.5095    -6018.433    783.48104    9.2188376    9.2188376    9.2188376    49.474942 
   11600    296.85464   -10525.032            0   -9641.0498   -12274.499    784.06428    9.2211246    9.2211246    9.2211246    47.280872 
   11700     287.6328   -10506.271            0   -9649.7497   -11237.452    784.33131    9.2221713    9.2221713    9.2221713    51.064361 
   11800    288.15377   -10515.103            0   -9657.0299    431.00547    784.08557     9.221208     9.221208     9.221208    59.684092 
   11900    294.38622   -10539.994            0   -9663.3619   -17925.234    783.16511    9.2175983    9.2175983    9.2175983    47.866083 
   12000    282.76971   -10509.423            0   -9667.3835   -5634.6803    781.38503    9.2106093    9.2106093    9.2106093    45.714781 
Loop time of 22.4583 on 16 procs for 1000 steps with 1000 atoms

Performance: 3.847 ns/day, 6.238 hours/ns, 44.527 timesteps/s
94.7% CPU use with 16 MPI tasks x no OpenMP threads

MPI task timing breakdown:
Section |  min time  |  avg time  |  max time  |%varavg| %total
---------------------------------------------------------------
Pair    | 2.2809     | 2.4423     | 2.5804     |   5.2 | 10.87
Neigh   | 0.76881    | 0.81049    | 0.856      |   2.7 |  3.61
Comm    | 0.88165    | 1.0518     | 1.2485     |  10.1 |  4.68
Output  | 11.687     | 12.091     | 18.095     |  44.6 | 53.84
Modify  | 0.049509   | 6.054      | 6.4586     |  63.0 | 26.96
Other   |            | 0.008644   |            |       |  0.04

Nlocal:    62.5 ave 68 max 56 min
Histogram: 2 1 0 0 2 5 2 1 0 3
Nghost:    1866.5 ave 1885 max 1843 min
Histogram: 2 2 1 2 0 1 0 2 2 4
Neighs:    0 ave 0 max 0 min
Histogram: 16 0 0 0 0 0 0 0 0 0
FullNghs:  18887.4 ave 20852 max 16861 min
Histogram: 1 2 0 0 6 1 3 0 1 2

Total # of neighbors = 302198
Ave neighs/atom = 302.198
Neighbor list builds = 1000
Dangerous builds not checked
Setting up Verlet run ...
  Unit style    : real
  Current step  : 12000
  Time step     : 1
Per MPI rank memory allocation (min/avg/max) = 4.576 | 4.578 | 4.58 Mbytes
Step Temp E_pair E_mol TotEng Press Volume Lx Ly Lz S/CPU 
   12000    282.76971   -10509.423            0   -9667.3835   -5634.6803    781.38503    9.2106093    9.2106093    9.2106093            0 
   12100    294.40766   -10547.687            0   -9670.9908    1642.0783    779.33008     9.202528     9.202528     9.202528    52.435612 
   12200    292.97927    -10542.52            0   -9670.0779    1016.3145    777.73516     9.196246     9.196246     9.196246    38.058231 
   12300    295.75195   -10547.299            0   -9666.6005   -4321.0258     776.3888    9.1909363    9.1909363    9.1909363    42.304054 
   12400    299.58658   -10553.621            0   -9661.5034    7992.3761     775.1187    9.1859217    9.1859217    9.1859217    32.252674 
   12500    290.62869   -10519.131            0   -9653.6883    24466.596    774.38344    9.1830162    9.1830162    9.1830162    41.041601 
   12600    293.50883   -10519.494            0   -9645.4745    24706.741    775.02427    9.1855486    9.1855486    9.1855486    45.612921 
   12700    285.10676   -10485.275            0   -9636.2755    14842.908    776.99236    9.1933173    9.1933173    9.1933173    48.960943 
   12800     298.5501   -10515.925            0   -9626.8935    16375.599    779.98556    9.2051073    9.2051073    9.2051073    45.418639 
   12900    292.41536   -10488.107            0   -9617.3442   -13148.144    783.73703    9.2198415    9.2198415    9.2198415    49.659186 
   13000    289.27634   -10468.523            0   -9607.1071   -2895.5156    787.10378    9.2330247    9.2330247    9.2330247    37.549528 
Loop time of 23.549 on 16 procs for 1000 steps with 1000 atoms

Performance: 3.669 ns/day, 6.541 hours/ns, 42.465 timesteps/s
94.7% CPU use with 16 MPI tasks x no OpenMP threads

MPI task timing breakdown:
Section |  min time  |  avg time  |  max time  |%varavg| %total
---------------------------------------------------------------
Pair    | 2.2731     | 2.4601     | 2.71       |   6.7 | 10.45
Neigh   | 0.76687    | 0.80998    | 0.88289    |   2.7 |  3.44
Comm    | 0.78259    | 1.1052     | 1.3354     |  12.1 |  4.69
Output  | 13.355     | 13.718     | 19.112     |  37.6 | 58.25
Modify  | 0.052479   | 5.4468     | 5.8105     |  59.7 | 23.13
Other   |            | 0.00863    |            |       |  0.04

Nlocal:    62.5 ave 69 max 57 min
Histogram: 1 1 4 1 1 4 1 1 0 2
Nghost:    1848.06 ave 1862 max 1834 min
Histogram: 1 1 1 3 3 1 1 4 0 1
Neighs:    0 ave 0 max 0 min
Histogram: 16 0 0 0 0 0 0 0 0 0
FullNghs:  18738.1 ave 20904 max 17092 min
Histogram: 1 3 3 0 3 2 1 1 1 1

Total # of neighbors = 299810
Ave neighs/atom = 299.81
Neighbor list builds = 1000
Dangerous builds not checked
Setting up Verlet run ...
  Unit style    : real
  Current step  : 13000
  Time step     : 1
Per MPI rank memory allocation (min/avg/max) = 4.576 | 4.578 | 4.58 Mbytes
Step Temp E_pair E_mol TotEng Press Volume Lx Ly Lz S/CPU 
   13000    289.27634   -10468.523            0   -9607.1071   -2895.5156    787.10378    9.2330247    9.2330247    9.2330247            0 
   13100    283.56619   -10441.693            0   -9597.2815    7849.3924    789.64908    9.2429665    9.2429665    9.2429665    33.993325 
   13200    289.20527   -10450.238            0   -9589.0346   -1058.3432    791.91675    9.2518058    9.2518058    9.2518058     45.65745 
   13300    297.60723   -10469.021            0   -9582.7975   -5632.5484    794.24646    9.2608695    9.2608695    9.2608695    36.691231 
   13400       297.16   -10461.114            0   -9576.2221   -14952.297    796.18796    9.2684093    9.2684093    9.2684093    53.695575 
   13500    296.62546    -10456.69            0   -9573.3904   -20255.739    797.16385    9.2721945    9.2721945    9.2721945    56.932436 
   13600     308.3739   -10489.778            0   -9571.4935   -28046.281    796.71913    9.2704699    9.2704699    9.2704699    51.999091 
   13700     300.0166   -10462.567            0    -9569.169   -19397.305    794.96897    9.2636768    9.2636768    9.2636768    48.503628 
   13800    291.16792   -10434.238            0   -9567.1901   -14063.752     792.1477    9.2527051    9.2527051    9.2527051    41.811039 
   13900    300.82565   -10462.654            0   -9566.8468   -12710.551    788.41588    9.2381524    9.2381524    9.2381524    50.305536 
   14000    306.79239   -10479.188            0   -9565.6128    10334.792    784.42339    9.2225322    9.2225322    9.2225322    44.590777 
Loop time of 22.0833 on 16 procs for 1000 steps with 1000 atoms

Performance: 3.912 ns/day, 6.134 hours/ns, 45.283 timesteps/s
94.7% CPU use with 16 MPI tasks x no OpenMP threads

MPI task timing breakdown:
Section |  min time  |  avg time  |  max time  |%varavg| %total
---------------------------------------------------------------
Pair    | 2.2492     | 2.3631     | 2.6194     |   6.1 | 10.70
Neigh   | 0.77478    | 0.80258    | 0.89057    |   2.9 |  3.63
Comm    | 0.72363    | 1.0679     | 1.2062     |  11.4 |  4.84
Output  | 12.132     | 12.489     | 17.786     |  38.7 | 56.55
Modify  | 0.054808   | 5.352      | 5.71       |  59.1 | 24.24
Other   |            | 0.008605   |            |       |  0.04

Nlocal:    62.5 ave 67 max 57 min
Histogram: 2 0 1 3 0 2 0 1 4 3
Nghost:    1854.06 ave 1881 max 1830 min
Histogram: 1 2 1 1 3 5 0 2 0 1
Neighs:    0 ave 0 max 0 min
Histogram: 16 0 0 0 0 0 0 0 0 0
FullNghs:  18814.1 ave 20196 max 17088 min
Histogram: 2 0 2 2 0 2 0 4 3 1

Total # of neighbors = 301026
Ave neighs/atom = 301.026
Neighbor list builds = 1000
Dangerous builds not checked
Setting up Verlet run ...
  Unit style    : real
  Current step  : 14000
  Time step     : 1
Per MPI rank memory allocation (min/avg/max) = 4.576 | 4.578 | 4.58 Mbytes
Step Temp E_pair E_mol TotEng Press Volume Lx Ly Lz S/CPU 
   14000    306.79239   -10479.188            0   -9565.6128    10334.792    784.42339    9.2225322    9.2225322    9.2225322            0 
   14100    303.26042    -10466.87            0   -9563.8119   -1100.6265    781.47254    9.2109532    9.2109532    9.2109532    42.414126 
   14200    295.85477   -10443.851            0   -9562.8456    8957.8578    779.43066    9.2029238    9.2029238    9.2029238     43.91204 
   14300    301.09998   -10461.248            0   -9564.6234    1237.2775     778.2524    9.1982842    9.1982842    9.1982842    36.159644 
   14400    305.89226   -10477.817            0   -9566.9219    23847.209    777.92068    9.1969771    9.1969771    9.1969771    37.758166 
   14500    315.52879   -10511.479            0   -9571.8884    24622.042    778.87059     9.200719     9.200719     9.200719    51.008566 
   14600    298.85013   -10468.897            0   -9578.9724     23291.66    780.92183     9.208789     9.208789     9.208789    38.413849 
   14700    306.39789   -10502.544            0   -9590.1438    2611.4948    784.05534    9.2210895    9.2210895    9.2210895    52.693942 
   14800    294.93259   -10479.138            0   -9600.8791    9009.9636     787.4553     9.234399     9.234399     9.234399    47.784774 
   14900    298.85498   -10504.673            0    -9614.734    1804.4422    790.67241    9.2469575    9.2469575    9.2469575     42.87699 
   15000    293.12096   -10498.697            0    -9625.833    4384.1329    793.59967    9.2583549    9.2583549    9.2583549    46.387884 
Loop time of 23.0911 on 16 procs for 1000 steps with 1000 atoms

Performance: 3.742 ns/day, 6.414 hours/ns, 43.307 timesteps/s
94.7% CPU use with 16 MPI tasks x no OpenMP threads

MPI task timing breakdown:
Section |  min time  |  avg time  |  max time  |%varavg| %total
---------------------------------------------------------------
Pair    | 2.3163     | 2.4456     | 2.7231     |   6.1 | 10.59
Neigh   | 0.78505    | 0.81194    | 0.8857     |   2.8 |  3.52
Comm    | 0.72172    | 1.0728     | 1.2284     |  11.5 |  4.65
Output  | 11.473     | 11.929     | 18.701     |  50.6 | 51.66
Modify  | 0.050039   | 6.8232     | 7.2787     |  67.0 | 29.55
Other   |            | 0.008651   |            |       |  0.04

Nlocal:    62.5 ave 66 max 59 min
Histogram: 2 2 2 0 2 1 0 3 3 1
Nghost:    1833.5 ave 1858 max 1812 min
Histogram: 2 2 2 3 1 1 1 0 1 3
Neighs:    0 ave 0 max 0 min
Histogram: 16 0 0 0 0 0 0 0 0 0
FullNghs:  18586.1 ave 19722 max 17305 min
Histogram: 1 2 1 2 2 0 3 0 4 1

Total # of neighbors = 297378
Ave neighs/atom = 297.378
Neighbor list builds = 1000
Dangerous builds not checked
Setting up Verlet run ...
  Unit style    : real
  Current step  : 15000
  Time step     : 1
Per MPI rank memory allocation (min/avg/max) = 4.576 | 4.578 | 4.58 Mbytes
Step Temp E_pair E_mol TotEng Press Volume Lx Ly Lz S/CPU 
   15000    293.12096   -10498.697            0    -9625.833    4384.1329    793.59967    9.2583549    9.2583549    9.2583549            0 
   15100    285.07092   -10482.411            0   -9633.5185   -24443.323    795.74297    9.2666822    9.2666822    9.2666822    56.937929 
   15200    286.37003   -10490.724            0   -9637.9625   -17968.484    796.28986    9.2688047    9.2688047    9.2688047    37.783836 
   15300    296.02603    -10522.37            0   -9640.8551   -9419.4206    795.52535    9.2658374    9.2658374    9.2658374    53.527457 
   15400    279.78416   -10472.069            0   -9638.9197   -17642.944    794.05369    9.2601202    9.2601202    9.2601202    40.046332 
   15500    300.72211   -10533.218            0   -9637.7189   -15863.983    792.04594    9.2523089    9.2523089    9.2523089    42.365934 
   15600    293.78813   -10508.374            0    -9633.523   -5418.3695    789.35924    9.2418355    9.2418355    9.2418355    52.176552 
   15700    298.89436   -10517.742            0   -9627.6856    10551.057    786.46729    9.2305353    9.2305353    9.2305353    58.505838 
   15800      296.652   -10506.478            0   -9623.0987    5141.4459    784.12846    9.2213762    9.2213762    9.2213762    53.710313 
   15900    293.63104   -10492.599            0   -9618.2157    8562.8303    782.31231    9.2142513    9.2142513    9.2142513    47.970182 
   16000    308.44515   -10533.796            0   -9615.2985    7723.6195    781.05818    9.2093249    9.2093249    9.2093249    50.853973 
Loop time of 20.6673 on 16 procs for 1000 steps with 1000 atoms

Performance: 4.181 ns/day, 5.741 hours/ns, 48.386 timesteps/s
94.8% CPU use with 16 MPI tasks x no OpenMP threads

MPI task timing breakdown:
Section |  min time  |  avg time  |  max time  |%varavg| %total
---------------------------------------------------------------
Pair    | 2.2366     | 2.3836     | 2.6409     |   6.2 | 11.53
Neigh   | 0.77506    | 0.80481    | 0.88208    |   2.7 |  3.89
Comm    | 0.74017    | 1.0743     | 1.251      |  11.5 |  5.20
Output  | 10.776     | 11.127     | 16.343     |  40.4 | 53.84
Modify  | 0.051877   | 5.2686     | 5.6205     |  58.7 | 25.49
Other   |            | 0.008566   |            |       |  0.04

Nlocal:    62.5 ave 67 max 56 min
Histogram: 1 2 0 1 1 0 5 1 3 2
Nghost:    1867.88 ave 1895 max 1849 min
Histogram: 3 3 1 2 0 3 1 0 1 2
Neighs:    0 ave 0 max 0 min
Histogram: 16 0 0 0 0 0 0 0 0 0
FullNghs:  18908.1 ave 20402 max 16776 min
Histogram: 1 2 0 1 1 0 5 3 2 1

Total # of neighbors = 302530
Ave neighs/atom = 302.53
Neighbor list builds = 1000
Dangerous builds not checked
Setting up Verlet run ...
  Unit style    : real
  Current step  : 16000
  Time step     : 1
Per MPI rank memory allocation (min/avg/max) = 4.576 | 4.578 | 4.58 Mbytes
Step Temp E_pair E_mol TotEng Press Volume Lx Ly Lz S/CPU 
   16000    308.44515   -10533.796            0   -9615.2985    7723.6195    781.05818    9.2093249    9.2093249    9.2093249            0 
   16100    296.07573   -10492.916            0   -9611.2534    13205.438    780.69376    9.2078924    9.2078924    9.2078924    30.874153 
   16200    293.86652   -10482.339            0   -9607.2542    9692.6424    780.83183    9.2084352    9.2084352    9.2084352    41.850564 
   16300    291.75904    -10474.22            0   -9605.4117    9914.6926     780.9101    9.2087429    9.2087429    9.2087429    47.148693 
   16400    305.76175   -10515.146            0   -9604.6399   -179.80328    781.36062    9.2105134    9.2105134    9.2105134    43.107885 
   16500    310.99279   -10530.493            0   -9604.4092    14748.065    782.29422    9.2141803    9.2141803    9.2141803    45.043955 
   16600    305.21042   -10512.043            0   -9603.1781    5849.8315    784.30688    9.2220755    9.2220755    9.2220755    37.697837 
   16700     301.8911   -10502.865            0    -9603.885    -1160.472    786.86082    9.2320746    9.2320746    9.2320746      47.0199 
   16800    293.21049   -10476.972            0   -9603.8408   -3146.5241    789.23637    9.2413559    9.2413559    9.2413559    53.176886 
   16900    306.41354   -10517.398            0   -9604.9507   -6702.2725    791.34476    9.2495778    9.2495778    9.2495778    38.811251 
   17000    297.22829   -10488.386            0   -9603.2911    1446.6197    792.75851    9.2550827    9.2550827    9.2550827    48.410806 
Loop time of 23.5914 on 16 procs for 1000 steps with 1000 atoms

Performance: 3.662 ns/day, 6.553 hours/ns, 42.388 timesteps/s
94.6% CPU use with 16 MPI tasks x no OpenMP threads

MPI task timing breakdown:
Section |  min time  |  avg time  |  max time  |%varavg| %total
---------------------------------------------------------------
Pair    | 2.255      | 2.4289     | 2.6613     |   5.9 | 10.30
Neigh   | 0.76135    | 0.80988    | 0.8907     |   3.3 |  3.43
Comm    | 0.76214    | 1.0754     | 1.2978     |  11.4 |  4.56
Output  | 13.049     | 13.438     | 19.21      |  40.7 | 56.96
Modify  | 0.058187   | 5.831      | 6.2199     |  61.7 | 24.72
Other   |            | 0.008644   |            |       |  0.04

Nlocal:    62.5 ave 68 max 59 min
Histogram: 3 0 3 2 3 2 1 1 0 1
Nghost:    1842.06 ave 1863 max 1825 min
Histogram: 2 2 1 3 1 1 2 2 1 1
Neighs:    0 ave 0 max 0 min
Histogram: 16 0 0 0 0 0 0 0 0 0
FullNghs:  18615.8 ave 20416 max 17355 min
Histogram: 3 0 3 1 4 2 1 0 1 1

Total # of neighbors = 297852
Ave neighs/atom = 297.852
Neighbor list builds = 1000
Dangerous builds not checked
Setting up Verlet run ...
  Unit style    : real
  Current step  : 17000
  Time step     : 1
Per MPI rank memory allocation (min/avg/max) = 4.576 | 4.578 | 4.58 Mbytes
Step Temp E_pair E_mol TotEng Press Volume Lx Ly Lz S/CPU 
   17000    297.22829   -10488.386            0   -9603.2911    1446.6197    792.75851    9.2550827    9.2550827    9.2550827            0 
   17100    295.34531   -10480.971            0   -9601.4827   -11110.631    793.43019    9.2576958    9.2576958    9.2576958    38.615752 
   17200    292.85774   -10470.314            0    -9598.234   -8879.5149    793.34095    9.2573487    9.2573487    9.2573487    44.316653 
   17300    291.15217   -10463.456            0   -9596.4541   -13751.774    792.37469    9.2535888    9.2535888    9.2535888    49.089235 
   17400    303.77331    -10495.66            0   -9591.0752   -3339.7027    790.34825    9.2456936    9.2456936    9.2456936    41.856806 
   17500    307.32789    -10497.47            0   -9582.2997    10009.685     788.0653    9.2367829    9.2367829    9.2367829    53.957948 
   17600    306.71341   -10483.895            0   -9570.5552    18246.588    786.10135    9.2291035    9.2291035    9.2291035    47.274744 
   17700    308.81024   -10474.992            0    -9555.408     3135.759    784.76623    9.2238756    9.2238756    9.2238756    38.129302 
   17800     309.1678   -10462.028            0   -9541.3792    10511.979    784.19613    9.2216414    9.2216414    9.2216414    51.947425 
   17900    314.12508   -10467.142            0   -9531.7316    8580.0374    784.22601    9.2217585    9.2217585    9.2217585     41.45849 
   18000    308.67059   -10444.109            0    -9524.941   -1233.3991    784.38526    9.2223827    9.2223827    9.2223827    45.659914 
Loop time of 22.3908 on 16 procs for 1000 steps with 1000 atoms

Performance: 3.859 ns/day, 6.220 hours/ns, 44.661 timesteps/s
94.7% CPU use with 16 MPI tasks x no OpenMP threads

MPI task timing breakdown:
Section |  min time  |  avg time  |  max time  |%varavg| %total
---------------------------------------------------------------
Pair    | 2.2642     | 2.4044     | 2.6487     |   5.8 | 10.74
Neigh   | 0.76485    | 0.80643    | 0.88878    |   3.3 |  3.60
Comm    | 0.76829    | 1.095      | 1.2767     |  11.2 |  4.89
Output  | 12.04      | 12.417     | 18.008     |  41.0 | 55.46
Modify  | 0.067824   | 5.6588     | 6.0372     |  60.7 | 25.27
Other   |            | 0.008577   |            |       |  0.04

Nlocal:    62.5 ave 68 max 55 min
Histogram: 1 0 1 2 1 2 5 3 0 1
Nghost:    1846.31 ave 1870 max 1832 min
Histogram: 4 1 2 2 3 0 1 2 0 1
Neighs:    0 ave 0 max 0 min
Histogram: 16 0 0 0 0 0 0 0 0 0
FullNghs:  18804.6 ave 20575 max 16558 min
Histogram: 1 0 1 2 3 1 2 5 0 1

Total # of neighbors = 300874
Ave neighs/atom = 300.874
Neighbor list builds = 1000
Dangerous builds not checked
Setting up Verlet run ...
  Unit style    : real
  Current step  : 18000
  Time step     : 1
Per MPI rank memory allocation (min/avg/max) = 4.576 | 4.578 | 4.58 Mbytes
Step Temp E_pair E_mol TotEng Press Volume Lx Ly Lz S/CPU 
   18000    308.67059   -10444.109            0    -9524.941   -1233.3991    784.38526    9.2223827    9.2223827    9.2223827            0 
   18100    304.39313   -10428.325            0   -9521.8947    2029.8205    784.99827    9.2247846    9.2247846    9.2247846    52.427809 
   18200    313.36147   -10454.121            0   -9520.9845    13567.748    785.95571    9.2285334    9.2285334    9.2285334    38.909278 
   18300    315.57643    -10462.42            0   -9522.6874   -2064.4175    787.28083     9.233717     9.233717     9.233717     41.11909 
   18400     301.8743   -10424.984            0   -9526.0538    7079.4662    788.76546    9.2395176    9.2395176    9.2395176    45.254751 
   18500     299.8776   -10424.729            0   -9531.7452   -2876.1964     790.3746    9.2457964    9.2457964    9.2457964     38.16491 
   18600    301.02101   -10434.648            0   -9538.2593    3775.5591    791.51934    9.2502579    9.2502579    9.2502579    50.087083 
   18700    304.34453   -10451.503            0   -9545.2171    3074.4523    792.28787    9.2532508    9.2532508    9.2532508    53.682788 
   18800    325.00979   -10522.393            0   -9554.5688   -4661.4321     792.7784    9.2551601    9.2551601    9.2551601    37.455291 
   18900    298.93983   -10451.949            0   -9561.7577    3631.0477     792.8932    9.2556068    9.2556068    9.2556068    51.648815 
   19000    302.62882   -10471.298            0   -9570.1206   -7446.4272    792.85712    9.2554664    9.2554664    9.2554664    44.890304 
Loop time of 22.4323 on 16 procs for 1000 steps with 1000 atoms

Performance: 3.852 ns/day, 6.231 hours/ns, 44.578 timesteps/s
94.7% CPU use with 16 MPI tasks x no OpenMP threads

MPI task timing breakdown:
Section |  min time  |  avg time  |  max time  |%varavg| %total
---------------------------------------------------------------
Pair    | 2.2551     | 2.4018     | 2.6921     |   7.0 | 10.71
Neigh   | 0.76054    | 0.80562    | 0.88834    |   3.3 |  3.59
Comm    | 0.71121    | 1.0841     | 1.2755     |  13.2 |  4.83
Output  | 12.745     | 13.083     | 18.093     |  35.8 | 58.32
Modify  | 0.038748   | 5.0497     | 5.3877     |  57.6 | 22.51
Other   |            | 0.008588   |            |       |  0.04

Nlocal:    62.5 ave 71 max 57 min
Histogram: 1 1 5 2 1 3 1 1 0 1
Nghost:    1831.88 ave 1844 max 1818 min
Histogram: 1 2 1 2 3 1 1 0 2 3
Neighs:    0 ave 0 max 0 min
Histogram: 16 0 0 0 0 0 0 0 0 0
FullNghs:  18610.2 ave 21236 max 16816 min
Histogram: 1 1 4 3 3 1 1 1 0 1

Total # of neighbors = 297764
Ave neighs/atom = 297.764
Neighbor list builds = 1000
Dangerous builds not checked
Setting up Verlet run ...
  Unit style    : real
  Current step  : 19000
  Time step     : 1
Per MPI rank memory allocation (min/avg/max) = 4.576 | 4.578 | 4.58 Mbytes
Step Temp E_pair E_mol TotEng Press Volume Lx Ly Lz S/CPU 
   19000    302.62882   -10471.298            0   -9570.1206   -7446.4272    792.85712    9.2554664    9.2554664    9.2554664            0 
   19100    296.47357   -10459.052            0   -9576.2043   -11576.706    792.15668    9.2527401    9.2527401    9.2527401    43.527188 
   19200    302.32415   -10481.439            0   -9581.1692   -10914.427    790.63279    9.2468031    9.2468031    9.2468031    57.013056 
   19300    298.80027   -10474.168            0   -9584.3918   -7761.1275    788.70836    9.2392946    9.2392946    9.2392946    33.429111 
   19400    299.59275   -10479.676            0   -9587.5403    57.935755    786.33606    9.2300219    9.2300219    9.2300219    42.662104 
   19500    291.11536   -10456.812            0     -9589.92    6226.7151    783.64352    9.2194748    9.2194748    9.2194748    45.743172 
   19600    299.62116   -10483.754            0   -9591.5329    61.086815     781.1637    9.2097396    9.2097396    9.2097396    43.862082 
   19700    299.71247   -10487.001            0   -9594.5088    20798.211    779.34987    9.2026059    9.2026059    9.2026059    47.235107 
   19800    306.08638   -10509.955            0   -9598.4819    18791.261    778.17785    9.1979905    9.1979905    9.1979905    42.298881 
   19900    292.64072    -10472.79            0   -9601.3556    13753.922    777.88392    9.1968322    9.1968322    9.1968322    32.992911 
   20000    294.14306   -10482.627            0   -9606.7187   -50.653287    778.34167    9.1986359    9.1986359    9.1986359    56.619399 
Loop time of 23.1312 on 16 procs for 1000 steps with 1000 atoms

Performance: 3.735 ns/day, 6.425 hours/ns, 43.232 timesteps/s
94.7% CPU use with 16 MPI tasks x no OpenMP threads

MPI task timing breakdown:
Section |  min time  |  avg time  |  max time  |%varavg| %total
---------------------------------------------------------------
Pair    | 2.2744     | 2.411      | 2.5214     |   4.7 | 10.42
Neigh   | 0.76782    | 0.8026     | 0.85776    |   2.2 |  3.47
Comm    | 0.94209    | 1.1025     | 1.2642     |   8.5 |  4.77
Output  | 11.78      | 12.22      | 18.765     |  48.3 | 52.83
Modify  | 0.041375   | 6.5862     | 7.0271     |  65.8 | 28.47
Other   |            | 0.008566   |            |       |  0.04

Nlocal:    62.5 ave 67 max 57 min
Histogram: 1 1 1 2 1 3 0 2 0 5
Nghost:    1867.19 ave 1888 max 1846 min
Histogram: 1 2 1 1 2 3 3 0 1 2
Neighs:    0 ave 0 max 0 min
Histogram: 16 0 0 0 0 0 0 0 0 0
FullNghs:  18954.8 ave 20458 max 17220 min
Histogram: 2 1 0 3 1 2 2 0 3 2

Total # of neighbors = 303276
Ave neighs/atom = 303.276
Neighbor list builds = 1000
Dangerous builds not checked
Setting up Verlet run ...
  Unit style    : real
  Current step  : 20000
  Time step     : 1
Per MPI rank memory allocation (min/avg/max) = 4.576 | 4.578 | 4.58 Mbytes
Step Temp E_pair E_mol TotEng Press Volume Lx Ly Lz S/CPU 
   20000    294.14306   -10482.627            0   -9606.7187   -50.653287    778.34167    9.1986359    9.1986359    9.1986359            0 
   20100    295.48133   -10491.359            0   -9611.4664    16601.639    779.09847    9.2016163    9.2016163    9.2016163    39.267317 
   20200    292.35146   -10487.651            0   -9617.0779    4205.6468    780.54886    9.2073227    9.2073227    9.2073227    51.071752 
   20300    292.86034   -10494.212            0   -9622.1242    4765.6396    782.23702    9.2139557    9.2139557    9.2139557    36.534945 
   20400    293.05892   -10497.379            0   -9624.7001   -4399.5189     783.7408    9.2198563    9.2198563    9.2198563    30.183082 
   20500    294.48456   -10504.384            0   -9627.4592    2039.1685    785.29326    9.2259399    9.2259399    9.2259399    27.768356 
   20600    291.22889   -10497.007            0   -9629.7769   -2069.8659    786.60842    9.2310874    9.2310874    9.2310874    43.549885 
   20700    303.10091    -10534.28            0   -9631.6977   -5359.5628     787.6981     9.235348     9.235348     9.235348      25.8676 
   20800    298.30661   -10521.406            0   -9633.0994   -11822.054    788.21825    9.2373804    9.2373804    9.2373804    37.799272 
   20900    287.74724   -10491.578            0   -9634.7163   -18346.433    787.64902    9.2351562    9.2351562    9.2351562    48.931539 
   21000    304.69574   -10542.548            0   -9635.2162   -8925.9895    786.00702    9.2287343    9.2287343    9.2287343    41.807359 
Loop time of 27.3994 on 16 procs for 1000 steps with 1000 atoms

Performance: 3.153 ns/day, 7.611 hours/ns, 36.497 timesteps/s
94.5% CPU use with 16 MPI tasks x no OpenMP threads

MPI task timing breakdown:
Section |  min time  |  avg time  |  max time  |%varavg| %total
---------------------------------------------------------------
Pair    | 2.2781     | 2.4247     | 2.658      |   5.4 |  8.85
Neigh   | 0.7745     | 0.80814    | 0.88168    |   2.8 |  2.95
Comm    | 0.78984    | 1.0962     | 1.2762     |  10.3 |  4.00
Output  | 14.982     | 15.487     | 22.995     |  49.3 | 56.52
Modify  | 0.065389   | 7.5747     | 8.0799     |  70.4 | 27.65
Other   |            | 0.008624   |            |       |  0.03

Nlocal:    62.5 ave 69 max 53 min
Histogram: 1 1 1 1 0 2 4 3 1 2
Nghost:    1846.44 ave 1862 max 1832 min
Histogram: 2 2 0 4 0 1 1 2 2 2
Neighs:    0 ave 0 max 0 min
Histogram: 16 0 0 0 0 0 0 0 0 0
FullNghs:  18748.5 ave 20794 max 15871 min
Histogram: 1 1 1 1 1 2 3 4 0 2

Total # of neighbors = 299976
Ave neighs/atom = 299.976
Neighbor list builds = 1000
Dangerous builds not checked
Setting up Verlet run ...
  Unit style    : real
  Current step  : 21000
  Time step     : 1
Per MPI rank memory allocation (min/avg/max) = 4.576 | 4.578 | 4.58 Mbytes
Step Temp E_pair E_mol TotEng Press Volume Lx Ly Lz S/CPU 
   21000    304.69574   -10542.548            0   -9635.2162   -8925.9895    786.00702    9.2287343    9.2287343    9.2287343            0 
   21100    289.72006   -10495.358            0   -9632.6212    1599.9393     784.1007    9.2212674    9.2212674    9.2212674    48.114612 
   21200    292.04071   -10499.089            0   -9629.4415    724.69606    782.10329    9.2134306    9.2134306    9.2134306    42.986193 
   21300     298.4534   -10513.197            0   -9624.4538    5043.9307    780.03925    9.2053185    9.2053185    9.2053185    52.594375 
   21400    292.05365   -10487.245            0   -9617.5587    4408.8139    777.94437    9.1970705    9.1970705    9.1970705    40.421028 
   21500    302.46642   -10509.455            0   -9608.7619    4114.9869    775.79231    9.1885819    9.1885819    9.1885819    50.992424 
   21600    301.89542   -10497.322            0    -9598.329     12705.01    774.06443    9.1817551    9.1817551    9.1817551    50.100961 
   21700    310.41231   -10512.724            0   -9588.3696    23809.247    773.20024    9.1783369    9.1783369    9.1783369    41.393409 
   21800    306.37411   -10493.434            0   -9581.1038    15788.301    773.43615    9.1792702    9.1792702    9.1792702     56.71637 
   21900    293.90977   -10449.489            0   -9574.2762    7013.2895    774.65489    9.1840891    9.1840891    9.1840891    43.853581 
   22000     316.1227   -10513.328            0   -9571.9685    27007.343    776.63693    9.1919153    9.1919153    9.1919153      35.8188 
Loop time of 21.9882 on 16 procs for 1000 steps with 1000 atoms

Performance: 3.929 ns/day, 6.108 hours/ns, 45.479 timesteps/s
94.7% CPU use with 16 MPI tasks x no OpenMP threads

MPI task timing breakdown:
Section |  min time  |  avg time  |  max time  |%varavg| %total
---------------------------------------------------------------
Pair    | 2.3432     | 2.4765     | 2.816      |   7.3 | 11.26
Neigh   | 0.78013    | 0.81085    | 0.89121    |   3.1 |  3.69
Comm    | 0.69274    | 1.1121     | 1.276      |  13.4 |  5.06
Output  | 12.096     | 12.438     | 17.51      |  37.1 | 56.57
Modify  | 0.069436   | 5.1419     | 5.4847     |  57.8 | 23.38
Other   |            | 0.00862    |            |       |  0.04

Nlocal:    62.5 ave 67 max 54 min
Histogram: 1 0 0 2 0 2 4 2 3 2
Nghost:    1861.44 ave 1877 max 1839 min
Histogram: 2 0 1 0 2 1 4 2 2 2
Neighs:    0 ave 0 max 0 min
Histogram: 16 0 0 0 0 0 0 0 0 0
FullNghs:  18994.1 ave 20428 max 16400 min
Histogram: 1 0 0 2 0 3 3 2 3 2

Total # of neighbors = 303906
Ave neighs/atom = 303.906
Neighbor list builds = 1000
Dangerous builds not checked
Setting up Verlet run ...
  Unit style    : real
  Current step  : 22000
  Time step     : 1
Per MPI rank memory allocation (min/avg/max) = 4.576 | 4.578 | 4.58 Mbytes
Step Temp E_pair E_mol TotEng Press Volume Lx Ly Lz S/CPU 
   22000     316.1227   -10513.328            0   -9571.9685    27007.343    776.63693    9.1919153    9.1919153    9.1919153            0 
   22100    309.46415   -10490.456            0   -9568.9246    8312.4767    779.65156    9.2037932    9.2037932    9.2037932    43.436745 
   22200    308.49779   -10487.052            0   -9568.3985    21925.653    783.49981    9.2189112    9.2189112    9.2189112    44.501578 
   22300    298.21929   -10454.558            0   -9566.5116   -12098.979    787.75305    9.2355628    9.2355628    9.2355628    40.717517 
   22400    291.01114   -10431.893            0   -9565.3117   -23470.251    791.08961    9.2485836    9.2485836    9.2485836    45.461513 
   22500    300.21527   -10459.544            0   -9565.5544   -8325.8499    793.18385    9.2567376    9.2567376    9.2567376     35.62065 
   22600     305.5007   -10477.258            0    -9567.529   -18.194248    794.06703     9.260172     9.260172     9.260172    44.594134 
   22700    296.44988   -10452.102            0   -9569.3245    -1609.441    794.43884    9.2616171    9.2616171    9.2616171     50.62231 
   22800    298.66428   -10461.597            0   -9572.2256   -9239.4261     794.2499    9.2608828    9.2608828    9.2608828    44.675796 
   22900    297.20177   -10461.692            0   -9576.6756    3473.2222     793.8905    9.2594858    9.2594858    9.2594858    43.252299 
   23000    305.04896   -10490.958            0   -9582.5745   -5896.7839     793.5505    9.2581637    9.2581637    9.2581637    47.504295 
Loop time of 22.8856 on 16 procs for 1000 steps with 1000 atoms

Performance: 3.775 ns/day, 6.357 hours/ns, 43.696 timesteps/s
94.7% CPU use with 16 MPI tasks x no OpenMP threads

MPI task timing breakdown:
Section |  min time  |  avg time  |  max time  |%varavg| %total
---------------------------------------------------------------
Pair    | 2.2653     | 2.3849     | 2.5895     |   5.8 | 10.42
Neigh   | 0.76499    | 0.8027     | 0.87402    |   3.2 |  3.51
Comm    | 0.79692    | 1.0724     | 1.2237     |  11.2 |  4.69
Output  | 13.079     | 13.426     | 18.566     |  36.2 | 58.66
Modify  | 0.050286   | 5.1913     | 5.539      |  58.3 | 22.68
Other   |            | 0.008618   |            |       |  0.04

Nlocal:    62.5 ave 67 max 57 min
Histogram: 1 0 3 1 1 1 2 2 2 3
Nghost:    1847.44 ave 1863 max 1834 min
Histogram: 2 2 0 1 3 3 3 0 1 1
Neighs:    0 ave 0 max 0 min
Histogram: 16 0 0 0 0 0 0 0 0 0
FullNghs:  18597.6 ave 19803 max 16944 min
Histogram: 1 1 2 1 2 1 1 2 2 3

Total # of neighbors = 297562
Ave neighs/atom = 297.562
Neighbor list builds = 1000
Dangerous builds not checked
Setting up Verlet run ...
  Unit style    : real
  Current step  : 23000
  Time step     : 1
Per MPI rank memory allocation (min/avg/max) = 4.576 | 4.578 | 4.58 Mbytes
Step Temp E_pair E_mol TotEng Press Volume Lx Ly Lz S/CPU 
   23000    305.04896   -10490.958            0   -9582.5745   -5896.7839     793.5505    9.2581637    9.2581637    9.2581637            0 
   23100      306.032   -10502.565            0   -9591.2537    4272.8902    792.94856    9.2558222    9.2558222    9.2558222    38.143775 
   23200    302.01157   -10497.855            0    -9598.516   -6755.9809    792.28648    9.2532454    9.2532454    9.2532454    53.388168 
   23300    290.48016   -10472.342            0   -9607.3415    12665.944    791.68447    9.2509012    9.2509012    9.2509012    56.272659 
   23400    292.59861   -10488.813            0   -9617.5046   -22154.262    791.06642    9.2484932    9.2484932    9.2484932    33.591566 
   23500    296.13253   -10506.497            0   -9624.6653   -9835.7979    789.95024    9.2441414    9.2441414    9.2441414    44.326123 
   23600    295.06693   -10509.878            0   -9631.2194   -13068.905    788.57778    9.2387847    9.2387847    9.2387847    36.205704 
   23700    292.77753   -10508.013            0   -9636.1717    1319.1427    787.12039    9.2330897    9.2330897    9.2330897     53.41773 
   23800    304.11554   -10546.636            0   -9641.0322    16584.938    786.12839    9.2292093    9.2292093    9.2292093    49.653363 
   23900    297.24971   -10529.388            0   -9644.2292   -1216.2573    785.92958    9.2284312    9.2284312    9.2284312    37.376992 
   24000    289.89087   -10509.268            0   -9646.0222    3824.5786    785.68943    9.2274911    9.2274911    9.2274911    60.329572 
Loop time of 22.4858 on 16 procs for 1000 steps with 1000 atoms

Performance: 3.842 ns/day, 6.246 hours/ns, 44.473 timesteps/s
94.7% CPU use with 16 MPI tasks x no OpenMP threads

MPI task timing breakdown:
Section |  min time  |  avg time  |  max time  |%varavg| %total
---------------------------------------------------------------
Pair    | 2.191      | 2.358      | 2.5175     |   5.8 | 10.49
Neigh   | 0.75447    | 0.79673    | 0.84804    |   2.9 |  3.54
Comm    | 0.89604    | 1.1066     | 1.3158     |  10.8 |  4.92
Output  | 12.226     | 12.599     | 18.147     |  40.4 | 56.03
Modify  | 0.068197   | 5.6166     | 5.9908     |  60.4 | 24.98
Other   |            | 0.008528   |            |       |  0.04

Nlocal:    62.5 ave 65 max 59 min
Histogram: 2 1 0 2 0 2 4 0 1 4
Nghost:    1857.88 ave 1884 max 1838 min
Histogram: 1 2 0 5 3 2 1 0 1 1
Neighs:    0 ave 0 max 0 min
Histogram: 16 0 0 0 0 0 0 0 0 0
FullNghs:  18790 ave 19665 max 17587 min
Histogram: 2 0 1 1 1 2 3 1 3 2

Total # of neighbors = 300640
Ave neighs/atom = 300.64
Neighbor list builds = 1000
Dangerous builds not checked
Setting up Verlet run ...
  Unit style    : real
  Current step  : 24000
  Time step     : 1
Per MPI rank memory allocation (min/avg/max) = 4.576 | 4.578 | 4.58 Mbytes
Step Temp E_pair E_mol TotEng Press Volume Lx Ly Lz S/CPU 
   24000    289.89087   -10509.268            0   -9646.0222    3824.5786    785.68943    9.2274911    9.2274911    9.2274911            0 
   24100    289.40302   -10509.241            0   -9647.4482    1063.6517    785.32922    9.2260808    9.2260808    9.2260808    36.643945 
   24200    291.29946   -10514.368            0   -9646.9279    5097.4869    784.88614    9.2243453    9.2243453    9.2243453     53.56683 
   24300    292.38332   -10513.818            0   -9643.1501    425.14433    784.37591    9.2223461    9.2223461    9.2223461     46.20759 
   24400    295.52731   -10518.153            0    -9638.123     8508.035    784.06045    9.2211096    9.2211096    9.2211096    40.799193 
   24500    299.90734     -10521.5            0   -9628.4272   -11252.242    783.77686    9.2199977    9.2199977    9.2199977    57.049973 
   24600    306.13558   -10527.726            0   -9616.1064   -5498.5153    783.43819    9.2186695    9.2186695    9.2186695    48.014174 
   24700    304.89296    -10508.13            0   -9600.2109   -667.91815    783.11135    9.2173874    9.2173874    9.2173874    37.840911 
   24800    293.75078   -10459.032            0   -9584.2928    9460.9465    782.80541    9.2161869    9.2161869    9.2161869    36.157036 
   24900    291.08543   -10438.223            0   -9571.4204    11977.428    782.69085    9.2157373    9.2157373    9.2157373    42.603242 
   25000    301.23765   -10460.276            0   -9563.2421    4024.1765    783.24434    9.2179091    9.2179091    9.2179091    50.804534 
Loop time of 22.7705 on 16 procs for 1000 steps with 1000 atoms

Performance: 3.794 ns/day, 6.325 hours/ns, 43.916 timesteps/s
94.7% CPU use with 16 MPI tasks x no OpenMP threads

MPI task timing breakdown:
Section |  min time  |  avg time  |  max time  |%varavg| %total
---------------------------------------------------------------
Pair    | 2.3396     | 2.433      | 2.6297     |   4.4 | 10.68
Neigh   | 0.78041    | 0.81091    | 0.87522    |   2.5 |  3.56
Comm    | 0.81715    | 1.0779     | 1.2005     |   8.6 |  4.73
Output  | 12.977     | 13.319     | 18.391     |  35.9 | 58.49
Modify  | 0.047965   | 5.1205     | 5.4626     |  57.9 | 22.49
Other   |            | 0.008644   |            |       |  0.04

Nlocal:    62.5 ave 69 max 56 min
Histogram: 2 1 1 2 1 2 4 1 1 1
Nghost:    1873.5 ave 1889 max 1859 min
Histogram: 1 1 2 2 2 3 2 0 1 2
Neighs:    0 ave 0 max 0 min
Histogram: 16 0 0 0 0 0 0 0 0 0
FullNghs:  18852.4 ave 20686 max 16743 min
Histogram: 1 2 1 1 1 2 3 3 0 2

Total # of neighbors = 301638
Ave neighs/atom = 301.638
Neighbor list builds = 1000
Dangerous builds not checked
Setting up Verlet run ...
  Unit style    : real
  Current step  : 25000
  Time step     : 1
Per MPI rank memory allocation (min/avg/max) = 4.576 | 4.578 | 4.58 Mbytes
Step Temp E_pair E_mol TotEng Press Volume Lx Ly Lz S/CPU 
   25000    301.23765   -10460.276            0   -9563.2421    4024.1765    783.24434    9.2179091    9.2179091    9.2179091            0 
   25100    293.77517   -10431.584            0   -9556.7716   -434.46469    784.12413    9.2213592    9.2213592    9.2213592    42.577508 
   25200    307.75464   -10469.893            0    -9553.452    6909.9873    785.12724    9.2252897    9.2252897    9.2252897    52.926827 
   25300     305.1104   -10459.617            0   -9551.0499    -8144.533     786.1742    9.2293885    9.2293885    9.2293885    46.591518 
   25400     311.9956   -10479.462            0    -9550.392   -2683.6592    786.82194    9.2319226    9.2319226    9.2319226    44.240272 
   25500    308.83643   -10469.583            0   -9549.9205    10731.862    787.58594    9.2349097    9.2349097    9.2349097    42.248752 
   25600       310.21   -10474.988            0   -9551.2356    11662.996    788.92703    9.2401484    9.2401484    9.2401484    44.925707 
   25700    310.61463   -10479.055            0    -9554.098   -11138.783    790.54486    9.2464602    9.2464602    9.2464602    36.003204 
   25800    304.08175   -10463.126            0   -9557.6225   -10828.353    791.46519     9.250047     9.250047     9.250047    47.208413 
   25900    300.12965   -10456.606            0   -9562.8714   -23612.486    791.78795    9.2513042    9.2513042    9.2513042    53.419112 
   26000    306.05839   -10481.849            0   -9570.4591    -4266.913    791.27173    9.2492933    9.2492933    9.2492933    46.947065 
Loop time of 22.1355 on 16 procs for 1000 steps with 1000 atoms

Performance: 3.903 ns/day, 6.149 hours/ns, 45.176 timesteps/s
94.7% CPU use with 16 MPI tasks x no OpenMP threads

MPI task timing breakdown:
Section |  min time  |  avg time  |  max time  |%varavg| %total
---------------------------------------------------------------
Pair    | 2.306      | 2.4033     | 2.6276     |   5.1 | 10.86
Neigh   | 0.77693    | 0.80496    | 0.86981    |   2.7 |  3.64
Comm    | 0.77832    | 1.0672     | 1.1922     |  10.0 |  4.82
Output  | 12.123     | 12.482     | 17.808     |  38.9 | 56.39
Modify  | 0.042572   | 5.3693     | 5.7286     |  59.4 | 24.26
Other   |            | 0.008569   |            |       |  0.04

Nlocal:    62.5 ave 67 max 57 min
Histogram: 1 0 0 0 4 3 2 5 0 1
Nghost:    1845.06 ave 1859 max 1829 min
Histogram: 1 1 0 2 3 0 5 1 1 2
Neighs:    0 ave 0 max 0 min
Histogram: 16 0 0 0 0 0 0 0 0 0
FullNghs:  18675 ave 19939 max 16808 min
Histogram: 1 0 0 0 3 3 4 3 1 1

Total # of neighbors = 298800
Ave neighs/atom = 298.8
Neighbor list builds = 1000
Dangerous builds not checked
Setting up Verlet run ...
  Unit style    : real
  Current step  : 26000
  Time step     : 1
Per MPI rank memory allocation (min/avg/max) = 4.576 | 4.578 | 4.58 Mbytes
Step Temp E_pair E_mol TotEng Press Volume Lx Ly Lz S/CPU 
   26000    306.05839   -10481.849            0   -9570.4591    -4266.913    791.27173    9.2492933    9.2492933    9.2492933            0 
   26100    309.94792   -10501.595            0   -9578.6227   -13087.648    790.50975    9.2463234    9.2463234    9.2463234    54.119689 
   26200    300.81527   -10483.451            0   -9587.6749   -4346.8669    789.62608    9.2428767    9.2428767    9.2428767     42.77765 
   26300     291.6374   -10464.737            0   -9596.2907    1294.9808    788.83482    9.2397884    9.2397884    9.2397884    47.318099 
   26400    303.52541   -10508.823            0   -9604.9761   -8108.4138    787.93225     9.236263     9.236263     9.236263    44.610297 
   26500    304.25276   -10519.542            0    -9613.529    3873.2409    786.78954    9.2317959    9.2317959    9.2317959    51.493197 
   26600    298.18461   -10509.013            0   -9621.0697    37.129097    785.68255    9.2274642    9.2274642    9.2274642    42.015322 
   26700    294.14045   -10503.051            0   -9627.1506   -16401.567    784.30149    9.2220544    9.2220544    9.2220544     52.08083 
   26800    297.80498   -10519.238            0   -9632.4256   -2952.5837    782.31774    9.2142727    9.2142727    9.2142727    47.717086 
   26900    306.64806   -10550.891            0   -9637.7451   -12698.495    779.93125    9.2048936    9.2048936    9.2048936    38.711044 
   27000    298.87222   -10529.671            0   -9639.6805   -553.40622     777.3266    9.1946353    9.1946353    9.1946353    54.984476 
Loop time of 21.2802 on 16 procs for 1000 steps with 1000 atoms

Performance: 4.060 ns/day, 5.911 hours/ns, 46.992 timesteps/s
94.7% CPU use with 16 MPI tasks x no OpenMP threads

MPI task timing breakdown:
Section |  min time  |  avg time  |  max time  |%varavg| %total
---------------------------------------------------------------
Pair    | 2.2933     | 2.4195     | 2.573      |   4.0 | 11.37
Neigh   | 0.77474    | 0.80827    | 0.86332    |   2.4 |  3.80
Comm    | 0.85803    | 1.0667     | 1.2269     |   7.9 |  5.01
Output  | 11.291     | 11.646     | 16.912     |  39.8 | 54.73
Modify  | 0.064475   | 5.331      | 5.6857     |  58.9 | 25.05
Other   |            | 0.008569   |            |       |  0.04

Nlocal:    62.5 ave 67 max 57 min
Histogram: 1 2 0 2 2 0 1 3 1 4
Nghost:    1871.5 ave 1897 max 1839 min
Histogram: 1 0 1 1 4 1 4 1 1 2
Neighs:    0 ave 0 max 0 min
Histogram: 16 0 0 0 0 0 0 0 0 0
FullNghs:  18977.2 ave 20386 max 17208 min
Histogram: 2 1 1 1 2 1 1 1 4 2

Total # of neighbors = 303636
Ave neighs/atom = 303.636
Neighbor list builds = 1000
Dangerous builds not checked
Setting up Verlet run ...
  Unit style    : real
  Current step  : 27000
  Time step     : 1
Per MPI rank memory allocation (min/avg/max) = 4.576 | 4.578 | 4.58 Mbytes
Step Temp E_pair E_mol TotEng Press Volume Lx Ly Lz S/CPU 
   27000    298.87222   -10529.671            0   -9639.6805   -553.40622     777.3266    9.1946353    9.1946353    9.1946353            0 
   27100    303.92133    -10547.72            0    -9642.694    19221.939    775.04141    9.1856163    9.1856163    9.1856163    53.727808 
   27200    304.95622   -10550.702            0   -9642.5945    4904.0342    773.91504    9.1811644    9.1811644    9.1811644    39.124155 
   27300    293.50476   -10517.429            0   -9643.4217     18607.04    774.03844    9.1816523    9.1816523    9.1816523    44.098275 
   27400    306.92996   -10558.802            0   -9644.8169    12236.178    775.16595    9.1861083    9.1861083    9.1861083    39.061123 
   27500    292.50612   -10513.294            0   -9642.2606    27471.485    777.34231    9.1946973    9.1946973    9.1946973    36.509329 
   27600    291.96968    -10510.47            0   -9641.0346    2155.7588    780.84942    9.2085043    9.2085043    9.2085043    51.594699 
   27700    286.54601   -10492.635            0   -9639.3502    730.25448    785.05524    9.2250077    9.2250077    9.2250077    53.032024 
   27800    286.92146   -10490.814            0   -9636.4114   -4967.5406    789.31161    9.2416496    9.2416496    9.2416496    46.466501 
   27900    294.23891   -10508.612            0   -9632.4192   -19404.373    792.80136    9.2552495    9.2552495    9.2552495    55.265037 
   28000    289.03116    -10486.48            0   -9625.7948   -16943.573    795.33412    9.2650949    9.2650949    9.2650949     41.46069 
Loop time of 22.1813 on 16 procs for 1000 steps with 1000 atoms

Performance: 3.895 ns/day, 6.161 hours/ns, 45.083 timesteps/s
[...]
  322700    295.97086   -11569.459            0   -10688.109    6480.4336    726.42167    8.9893771    8.9893771    8.9893771    56.931598 
  322800    299.78561   -11583.558            0   -10690.848   -8208.3579    725.75573    8.9866293    8.9866293    8.9866293    41.014553 
  322900    289.76473   -11553.593            0   -10690.723    6983.4365    724.74946     8.982474     8.982474     8.982474    50.417236 
  323000     291.0379   -11557.884            0   -10691.223   -2399.0478    723.80226    8.9785591    8.9785591    8.9785591    52.075512 
  323100    293.90814   -11565.616            0   -10690.407    17506.794    723.02232    8.9753329    8.9753329    8.9753329    40.704821 
  323200    294.15437   -11563.511            0   -10687.569    7862.5876    722.99813    8.9752329    8.9752329    8.9752329    43.750859 
  323300    301.76585   -11584.876            0   -10686.269    6982.7325     723.7903    8.9785096    8.9785096    8.9785096    44.157059 
  323400    290.84813   -11548.462            0   -10682.366    2541.7787    724.96381    8.9833594    8.9833594    8.9833594    55.279659 
  323500    304.59007   -11585.432            0   -10678.415   -2998.8776    726.12855    8.9881678    8.9881678    8.9881678    42.539245 
  323600    301.27869   -11571.518            0   -10674.362   -13999.536    726.98964    8.9917193    8.9917193    8.9917193    45.755119 
  323700    293.65832   -11542.291            0   -10667.827   -4809.7718    727.24255    8.9927619    8.9927619    8.9927619    60.179991 
  323800    311.10102   -11590.249            0   -10663.843   -11916.381    726.91958    8.9914305    8.9914305    8.9914305    54.225547 
  323900    306.58989   -11570.834            0   -10657.862   -1665.1888    726.17582    8.9883628    8.9883628    8.9883628    42.724747 
  324000    305.54901   -11562.613            0    -10652.74   -3566.4783     725.3051    8.9847689    8.9847689    8.9847689    36.326979 
  324100    300.36984   -11543.215            0   -10648.765     2234.581     724.3267    8.9807271    8.9807271    8.9807271    49.768126 
  324200    302.84023   -11547.612            0   -10645.805    7555.3749    723.52244    8.9774019    8.9774019    8.9774019    48.542953 
  324300    294.44055    -11518.62            0   -10641.827    21829.263    723.29629    8.9764665    8.9764665    8.9764665    55.101148 
  324400    295.73061   -11520.425            0   -10639.789    7107.2512     724.0287    8.9794953    8.9794953    8.9794953     43.28087 
  324500    297.37083   -11524.915            0   -10639.395   -4300.0576    725.35063    8.9849569    8.9849569    8.9849569    41.165503 
  324600    297.90973   -11525.425            0     -10638.3   -11271.048    726.81285    8.9909904    8.9909904    8.9909904    38.871747 
  324700    297.38113   -11522.584            0   -10637.034    1557.7946    728.04748    8.9960784    8.9960784    8.9960784    49.216635 
  324800    303.88624   -11541.949            0   -10637.028   -15570.991    729.29403    9.0012098    9.0012098    9.0012098    41.849918 
  324900    307.52789   -11552.205            0    -10636.44   -5785.9655    729.93751    9.0038564    9.0038564    9.0038564    46.242399 
  325000    303.52928    -11539.44            0   -10635.582   -6907.6907    729.83241    9.0034243    9.0034243    9.0034243    55.407993 
  325100    299.02674   -11524.778            0   -10634.327   -15666.582    729.03183     9.000131     9.000131     9.000131    36.202436 
  325200    303.63205   -11539.051            0   -10634.887   -2302.7985    727.62674    8.9943452    8.9943452    8.9943452    57.828987 
  325300    291.07657   -11500.014            0   -10633.238    6235.0727    725.90332    8.9872384    8.9872384    8.9872384    41.655187 
  325400    294.26009   -11510.046            0    -10633.79    13586.159    724.37564    8.9809293    8.9809293    8.9809293    39.746951 
  325500    301.70033   -11531.283            0    -10632.87    13253.271    723.64176    8.9778954    8.9778954    8.9778954    47.791087 
  325600    294.54847   -11509.657            0   -10632.542    10880.514    723.60151    8.9777289    8.9777289    8.9777289     48.30136 
  325700    306.63643   -11546.431            0    -10633.32    7936.2821    724.23576    8.9803512    8.9803512    8.9803512    46.486533 
  325800    304.75345   -11542.507            0   -10635.003    2140.8592    725.14805    8.9841203    8.9841203    8.9841203    50.302921 
  325900    301.79909   -11534.646            0   -10635.939   -6276.6717    726.06439     8.987903     8.987903     8.987903    57.526236 
  326000    307.26346   -11553.847            0   -10638.869   -5706.3342    726.55888     8.989943     8.989943     8.989943    46.176458 
  326100    300.46324   -11536.359            0   -10641.631   -12124.319    726.39836    8.9892809    8.9892809    8.9892809    44.780843 
  326200    289.18801   -11505.833            0   -10644.681   -4417.7931    725.79736    8.9868011    8.9868011    8.9868011    39.578488 
  326300    309.25183   -11573.826            0   -10652.926    6797.8684    724.90118    8.9831007    8.9831007    8.9831007    40.935559 
  326400    302.90487   -11560.956            0   -10658.957    1073.3602    723.97567    8.9792761    8.9792761    8.9792761    47.741457 
  326500    293.23232   -11539.984            0   -10666.788    2848.8777     723.0831    8.9755845    8.9755845    8.9755845    42.507202 
  326600    292.26768   -11548.213            0   -10677.889    14312.553    722.40029    8.9727583    8.9727583    8.9727583    38.560097 
  326700    288.71673   -11553.807            0   -10694.058    12675.482    722.19755    8.9719189    8.9719189    8.9719189    50.086538 
  326800    290.77023   -11575.736            0   -10709.872    2256.3575    722.41812    8.9728322    8.9728322    8.9728322    56.942364 
  326900    285.39002    -11573.98            0   -10724.137    14899.532    722.90839    8.9748615    8.9748615    8.9748615    43.353764 
  327000    290.98112   -11599.131            0   -10732.639   -792.53106    723.59767     8.977713     8.977713     8.977713    38.799354 
  327100      286.443   -11589.325            0   -10736.346   -1506.1855    724.24708     8.980398     8.980398     8.980398    49.556475 
  327200    284.42185    -11584.45            0    -10737.49    639.72557    724.67632    8.9821718    8.9821718    8.9821718    46.792403 
  327300    290.94598   -11603.853            0   -10737.466    8635.4494    724.87489    8.9829921    8.9829921    8.9829921    49.570439 
  327400    291.91498   -11603.486            0   -10734.213   -19461.744    724.71092    8.9823147    8.9823147    8.9823147    42.469188 
  327500    287.83738   -11585.569            0   -10728.438    -412.1385     724.0546    8.9796024    8.9796024    8.9796024    38.656903 
  327600    290.04277     -11585.1            0   -10721.402    14810.933    723.39571    8.9768777    8.9768777    8.9768777    49.521507 
  327700    294.73449   -11591.635            0   -10713.966    11901.724    723.22336    8.9761648    8.9761648    8.9761648    39.913469 
  327800    288.15326   -11563.491            0    -10705.42    12420.424    723.52449    8.9774104    8.9774104    8.9774104    53.738885 
  327900    294.39085   -11572.546            0   -10695.901   -5735.2658     724.2188    8.9802811    8.9802811    8.9802811    53.206082 
  328000    294.73908   -11566.707            0   -10689.025   -4408.2815    724.89644    8.9830811    8.9830811    8.9830811    37.238371 
  328100    293.78759   -11556.472            0   -10681.623    5442.4867    725.35397    8.9849707    8.9849707    8.9849707    43.925899 
  328200    294.74816   -11552.258            0   -10674.548   -6973.2397     725.6752    8.9862968    8.9862968    8.9862968    44.035815 
  328300    299.25508   -11560.113            0   -10668.982   -7511.5795    725.57257    8.9858732    8.9858732    8.9858732    50.060789 
  328400    305.03895   -11573.513            0   -10665.159   -1840.2414    725.09912    8.9839183    8.9839183    8.9839183    56.743246 
  328500    301.26467   -11556.787            0   -10659.672    1950.3168    724.68615    8.9822124    8.9822124    8.9822124    41.674149 
  328600    294.95714   -11534.195            0   -10655.863     7080.824    724.48085    8.9813641    8.9813641    8.9813641    55.410922 
  328700     304.9747   -11560.361            0   -10652.198   -252.14893    724.63139    8.9819862    8.9819862    8.9819862     41.60163 
  328800    295.12592   -11527.219            0   -10648.385   -770.94779     725.0637     8.983772     8.983772     8.983772    49.618488 
  328900    309.91133   -11570.232            0   -10647.369   -7412.6119    725.69225    8.9863672    8.9863672    8.9863672    43.310152 
  329000    304.88515   -11552.074            0   -10644.178   -8894.3643    726.15625    8.9882821    8.9882821    8.9882821    44.257015 
  329100    289.32598   -11501.063            0     -10639.5    1648.4653    726.33196     8.989007     8.989007     8.989007    54.469751 
  329200    294.45541   -11515.171            0   -10638.334    3608.1869    726.36802    8.9891558    8.9891558    8.9891558     40.59095 
  329300    299.89568   -11530.779            0   -10637.741   -10708.033    726.41792    8.9893616    8.9893616    8.9893616    41.038079 
  329400     292.3277   -11506.215            0   -10635.713   -5384.7592    726.08323    8.9879808    8.9879808    8.9879808    54.906429 
  329500    301.04707   -11530.592            0   -10634.125   -3080.9596    725.54251    8.9857491    8.9857491    8.9857491    53.051818 
  329600    309.63483   -11558.704            0   -10636.664    4542.7771    724.99836    8.9835021    8.9835021    8.9835021    42.792105 
  329700    305.79592   -11548.074            0   -10637.466    6754.9806    724.65034    8.9820645    8.9820645    8.9820645    48.963897 
  329800    304.70806   -11546.956            0   -10639.587     5903.359    724.54356    8.9816232    8.9816232    8.9816232    51.729197 
  329900    294.54852   -11521.161            0   -10644.046    10676.646    724.67517     8.982167     8.982167     8.982167    38.777425 
  330000     301.0633   -11549.931            0   -10653.416     4565.509    725.05785    8.9837478    8.9837478    8.9837478    40.950613 
  330100    291.36247   -11529.906            0   -10662.278   -6661.1954    725.33088    8.9848753    8.9848753    8.9848753    53.772153 
  330200    298.65926   -11562.811            0   -10673.455   -10017.512    725.32402     8.984847     8.984847     8.984847    45.738486 
  330300    295.69748   -11564.101            0   -10683.564   -2665.3578    725.07406    8.9838148    8.9838148    8.9838148    57.786867 
  330400    291.88556   -11561.709            0   -10692.524   -9645.2535    724.58585     8.981798     8.981798     8.981798    39.744875 
  330500    290.54057   -11565.621            0   -10700.441    1387.4991    723.92873     8.979082     8.979082     8.979082    42.252773 
  330600    297.33277   -11590.375            0   -10704.969    3697.1283    723.11937    8.9757345    8.9757345    8.9757345    62.170206 
  330700     296.7102   -11593.209            0   -10709.657    9051.2591    722.44582    8.9729468    8.9729468    8.9729468    38.356163 
  330800    289.18239   -11573.764            0   -10712.628    15204.641    722.22201    8.9720201    8.9720201    8.9720201    42.161789 
  330900    283.26384   -11557.355            0   -10713.844    476.13858    722.50412    8.9731882    8.9731882    8.9731882    54.179973 
  331000    293.85811   -11589.031            0   -10713.972    9921.5451    723.27481    8.9763776    8.9763776    8.9763776    53.718096 
  331100    295.76283   -11593.151            0    -10712.42   -3222.4542    724.53103    8.9815715    8.9815715    8.9815715    59.707434 
  331200    284.60131   -11553.667            0   -10706.173   -11235.496    725.80084    8.9868154    8.9868154    8.9868154    56.650774 
  331300    292.11342   -11569.656            0   -10699.793    -12477.11    726.59177    8.9900787    8.9900787    8.9900787    45.801421 
  331400    289.12325   -11549.972            0   -10689.013   -16686.889    726.65443    8.9903371    8.9903371    8.9903371    45.256954 
  331500    299.84217    -11569.91            0   -10677.031    -7119.637    725.92351    8.9873217    8.9873217    8.9873217    49.216639 
  331600    297.79288   -11550.841            0   -10664.065    14227.471    724.54182    8.9816161    8.9816161    8.9816161    48.419423 
  331700    300.21266   -11545.849            0   -10651.867    9167.3193    723.25437     8.976293     8.976293     8.976293    55.930377 
  331800    308.24699   -11561.591            0   -10643.685    15493.355    722.29943    8.9723407    8.9723407    8.9723407    35.103759 
  331900    305.88649   -11549.366            0   -10638.489     20199.21    722.26235    8.9721872    8.9721872    8.9721872    48.936293 
  332000    301.65771   -11532.766            0   -10634.481     22350.53    723.32313    8.9765775    8.9765775    8.9765775    52.989314 
  332100     298.2303   -11520.958            0   -10632.879   -898.04067     725.2146    8.9843952    8.9843952    8.9843952    44.658988 
  332200    305.70695   -11543.719            0   -10633.375   -16098.752     727.2657    8.9928573    8.9928573    8.9928573    51.483091 
  332300    300.92806   -11528.964            0   -10632.852    -13511.48    728.96632    8.9998614    8.9998614    8.9998614     56.42544 
  332400    304.51193   -11540.298            0   -10633.513   -25367.824    729.72986    9.0030025    9.0030025    9.0030025    40.295711 
  332500    301.61273   -11532.456            0   -10634.305   -9402.3476     729.0877    9.0003609    9.0003609    9.0003609    41.845505 
  332600    311.54839   -11564.665            0   -10636.927   -16171.603    727.18113    8.9925087    8.9925087    8.9925087    38.923861 
  332700    304.87902   -11545.598            0    -10637.72    1126.6354    724.41779    8.9811035    8.9811035    8.9811035    38.979183 
  332800     295.5609   -11519.699            0   -10639.569     16589.47    721.75748    8.9700962    8.9700962    8.9700962    42.565082 
  332900     304.1086   -11549.651            0   -10644.068    28150.627    720.22726    8.9637524    8.9637524    8.9637524    42.929009 
  333000    303.81266   -11552.925            0   -10648.223     32680.91    720.31824    8.9641298    8.9641298    8.9641298    51.041068 
  333100    314.49781   -11591.844            0   -10655.324    15172.524    721.97149    8.9709826    8.9709826    8.9709826    46.170817 
  333200    303.17568   -11564.586            0    -10661.78    1357.4508    724.68485     8.982207     8.982207     8.982207    45.994671 
  333300    303.90156   -11574.598            0   -10669.631   -8709.3318    727.54946    8.9940267    8.9940267    8.9940267    47.703829 
  333400    298.31744   -11566.153            0   -10677.815   -22859.095    729.61591    9.0025339    9.0025339    9.0025339    49.657468 
  333500    295.59119   -11567.219            0   -10686.999   -26740.915    730.18268    9.0048644    9.0048644    9.0048644    46.278136 
  333600    299.08101   -11588.174            0   -10697.562       -13701    729.21114    9.0008688    9.0008688    9.0008688    56.695836 
  333700    298.64081   -11598.069            0   -10708.767   -9342.8228     727.1183    8.9922497    8.9922497    8.9922497    59.254637 
  333800     282.3652   -11558.998            0   -10718.163    5745.8622    724.32844    8.9807343    8.9807343    8.9807343    44.326779 
  333900    290.37375   -11592.652            0   -10727.968    17707.166    721.64003    8.9696095    8.9696095    8.9696095    52.290709 
  334000    294.83386   -11614.262            0   -10736.297    21431.337    719.77647    8.9618819    8.9618819    8.9618819    55.819263 
  334100    282.56486   -11585.001            0   -10743.571    10416.427    719.22083    8.9595752    8.9595752    8.9595752    36.943584 
  334200    275.96626   -11571.213            0   -10749.433    14379.207    719.88216    8.9623205    8.9623205    8.9623205    41.596815 
  334300    280.82196   -11590.955            0   -10754.715    5059.9446    721.64993    8.9696506    8.9696506    8.9696506    55.192817 
  334400    284.63792   -11607.269            0   -10759.666    -8457.391    723.93495    8.9791077    8.9791077    8.9791077    40.522225 
  334500    289.15923   -11620.906            0   -10759.839     -13194.3    726.06261    8.9878957    8.9878957    8.9878957     59.97398 
  334600    293.67235   -11632.271            0   -10757.765   -28942.132    727.42387    8.9935092    8.9935092    8.9935092    36.311681 
  334700    280.88921   -11583.497            0   -10747.057   -22411.515    727.45682     8.993645     8.993645     8.993645    55.607882 
  334800    298.19134   -11621.889            0   -10733.926   -15342.996    726.16722    8.9883273    8.9883273    8.9883273    48.635708 
  334900    286.13428   -11566.627            0   -10714.568   -14.129796    724.21721    8.9802745    8.9802745    8.9802745      30.5478 
  335000     289.0642   -11559.172            0   -10698.388   -3145.8643    722.29815    8.9723354    8.9723354    8.9723354    51.199536 
  335100    296.59265   -11568.209            0   -10685.007    8330.0876    720.82122    8.9662158    8.9662158    8.9662158    45.583635 
  335200    293.07544   -11547.215            0   -10674.486    36004.896    720.17963    8.9635548    8.9635548    8.9635548    41.369135 
  335300    300.95647   -11562.414            0   -10666.217      19525.1    721.10844    8.9674066    8.9674066    8.9674066    40.931375 
  335400    296.58553   -11541.935            0   -10658.754    12535.637    723.43225    8.9770289    8.9770289    8.9770289    51.610875 
  335500    297.80142   -11539.308            0   -10652.506   -11532.878    726.56398    8.9899641    8.9899641    8.9899641    42.115488 
  335600    293.37343    -11517.37            0   -10643.754   -15123.129    729.51875    9.0021342    9.0021342    9.0021342    57.995715 
  335700     311.7782   -11566.932            0   -10638.509   -28737.787    731.37237    9.0097523    9.0097523    9.0097523    59.570509 
  335800    297.72064   -11517.015            0   -10630.454   -31830.008    731.47076    9.0101563    9.0101563    9.0101563    47.805817 
  335900    305.01244   -11532.252            0   -10623.977   -20606.515    729.99228    9.0040816    9.0040816    9.0040816     41.38785 
  336000     298.4349   -11506.288            0     -10617.6   -4878.3041    727.51314    8.9938771    8.9938771    8.9938771    50.210885 
Loop time of 2120.27 on 16 procs for 100000 steps with 1000 atoms

Performance: 4.075 ns/day, 5.890 hours/ns, 47.164 timesteps/s
94.7% CPU use with 16 MPI tasks x no OpenMP threads

MPI task timing breakdown:
Section |  min time  |  avg time  |  max time  |%varavg| %total
---------------------------------------------------------------
Pair    | 236.03     | 245.99     | 271.28     |  52.3 | 11.60
Neigh   | 81.847     | 84.843     | 90.615     |  22.8 |  4.00
Comm    | 73.049     | 104.05     | 116.15     |  97.1 |  4.91
Output  | 1133.6     | 1168.1     | 1679.1     | 386.1 | 55.09
Modify  | 5.3083     | 516.41     | 550.9      | 580.7 | 24.36
Other   |            | 0.8923     |            |       |  0.04

Nlocal:    62.5 ave 67 max 58 min
Histogram: 1 2 2 1 1 2 3 2 1 1
Nghost:    1970.88 ave 1993 max 1957 min
Histogram: 2 3 1 4 1 1 3 0 0 1
Neighs:    0 ave 0 max 0 min
Histogram: 16 0 0 0 0 0 0 0 0 0
FullNghs:  20205.5 ave 21809 max 18779 min
Histogram: 2 2 1 2 0 2 3 2 1 1

Total # of neighbors = 323288
Ave neighs/atom = 323.288
Neighbor list builds = 100000
Dangerous builds not checked
Total wall time: 2:02:48
