LAMMPS (16 Mar 2018)
Reading data file ...
  orthogonal box = (-4.71657 -4.71657 -4.71657) to (4.71657 4.71657 4.71657)
  2 by 2 by 4 MPI processor grid
  reading atoms ...
  1000 atoms
Reading potential file /home/fs01/ajm529/lammps-16Mar18/potentials/sw_potentials/AG/eps2.23.sw with DATE: 2008-01-29
Neighbor list info ...
  update every 1 steps, delay 0 steps, check no
  max neighbors/atom: 2000, page size: 100000
  master list distance cutoff = 3.836
  ghost atom cutoff = 3.836
  binsize = 1.918, bins = 5 5 5
  1 neighbor lists, perpetual/occasional/extra = 1 0 0
  (1) pair sw, perpetual
      attributes: full, newton on
      pair build: full/bin/atomonly
      stencil: full/bin/3d
      bin: standard
Setting up Verlet run ...
  Unit style    : real
  Current step  : 0
  Time step     : 1
Per MPI rank memory allocation (min/avg/max) = 3.517 | 3.519 | 3.52 Mbytes
Step Temp E_pair E_mol TotEng Press Volume Lx Ly Lz S/CPU 
       0          300   -10146.975            0   -9253.6262   -22258.274    839.40041    9.4331424    9.4331424    9.4331424            0 
     100    319.71867   -10211.387            0   -9259.3194   -49330.324    837.72883    9.4268766    9.4268766    9.4268766    56.458392 
     200    328.99114    -10252.61            0   -9272.9301   -32254.662    832.35159    9.4066634    9.4066634    9.4066634      48.8276 
     300    319.31731   -10241.525            0   -9290.6528   -24821.703    824.11304     9.375525     9.375525     9.375525    63.563962 
     400    326.40058   -10284.554            0   -9312.5884   -18162.793    814.07411       9.3373       9.3373       9.3373    53.892943 
     500    332.34838   -10321.591            0   -9331.9143    6054.1567    803.65565    9.2972962    9.2972962    9.2972962    56.908517 
     600    334.12352   -10341.347            0   -9346.3841    14534.443    794.43553    9.2616043    9.2616043    9.2616043    57.919266 
     700    324.48067   -10324.053            0   -9357.8052     14992.73    787.39871    9.2341778    9.2341778    9.2341778    66.592227 
     800    328.80362   -10350.645            0   -9371.5239    15359.265    782.74865    9.2159641    9.2159641    9.2159641     94.31566 
     900    321.35134   -10344.722            0   -9387.7925    10475.657    779.98831    9.2051181    9.2051181    9.2051181    77.117342 
    1000     328.6659   -10386.063            0   -9407.3519     33168.51    778.89899    9.2008309    9.2008309    9.2008309    67.111296 
Loop time of 16.0805 on 16 procs for 1000 steps with 1000 atoms

Performance: 5.373 ns/day, 4.467 hours/ns, 62.187 timesteps/s
94.5% CPU use with 16 MPI tasks x no OpenMP threads

MPI task timing breakdown:
Section |  min time  |  avg time  |  max time  |%varavg| %total
---------------------------------------------------------------
Pair    | 1.5916     | 1.6456     | 1.7163     |   2.5 | 10.23
Neigh   | 0.58584    | 0.60031    | 0.64382    |   1.8 |  3.73
Comm    | 0.3483     | 0.46234    | 0.53032    |   6.5 |  2.88
Output  | 9.0541     | 9.3255     | 13.344     |  34.0 | 57.99
Modify  | 0.020869   | 4.0399     | 4.3113     |  51.6 | 25.12
Other   |            | 0.006828   |            |       |  0.04

Nlocal:    62.5 ave 68 max 57 min
Histogram: 2 0 1 3 2 1 3 3 0 1
Nghost:    1857.94 ave 1876 max 1842 min
Histogram: 1 2 2 3 1 1 2 3 0 1
Neighs:    0 ave 0 max 0 min
Histogram: 16 0 0 0 0 0 0 0 0 0
FullNghs:  18946.9 ave 20669 max 17129 min
Histogram: 1 1 1 2 2 2 4 2 0 1

Total # of neighbors = 303150
Ave neighs/atom = 303.15
Neighbor list builds = 1000
Dangerous builds not checked
Setting up Verlet run ...
  Unit style    : real
  Current step  : 1000
  Time step     : 1
Per MPI rank memory allocation (min/avg/max) = 3.52 | 4.411 | 4.579 Mbytes
Step Temp E_pair E_mol TotEng Press Volume Lx Ly Lz S/CPU 
    1000     328.6659   -10386.063            0   -9407.3519     33168.51    778.89899    9.2008309    9.2008309    9.2008309            0 
    1100    326.23502   -10398.394            0   -9426.9218    24677.687    779.68388    9.2039204    9.2039204    9.2039204    83.738477 
    1200    324.76184   -10413.702            0   -9446.6164    18365.407     781.7255    9.2119469    9.2119469    9.2119469    69.764077 
    1300    313.13765   -10397.793            0   -9465.3225     2980.682    784.29591    9.2220325    9.2220325    9.2220325    65.739007 
    1400    317.41318     -10428.9            0   -9483.6976   -13100.965    786.74353    9.2316159    9.2316159    9.2316159    92.783531 
    1500    308.15952   -10417.974            0   -9500.3278     9169.197    788.71201    9.2393089    9.2393089    9.2393089    98.386659 
    1600     313.3515   -10449.406            0   -9516.2985   -3738.8662    790.77196    9.2473456    9.2473456    9.2473456    62.949784 
    1700    314.26163   -10466.878            0   -9531.0606   -17433.999    792.51318    9.2541279    9.2541279    9.2541279    101.79104 
    1800    298.86596   -10434.874            0   -9544.9027   -16056.165    793.35119    9.2573886    9.2573886    9.2573886    79.918081 
    1900    300.07529     -10451.7            0   -9558.1271    -10492.96    792.74919    9.2550464    9.2550464    9.2550464    57.514013 
    2000    310.57431   -10495.224            0   -9570.3865   -11160.968     791.1377     9.248771     9.248771     9.248771    88.848848 
Loop time of 12.9294 on 16 procs for 1000 steps with 1000 atoms

Performance: 6.682 ns/day, 3.592 hours/ns, 77.343 timesteps/s
94.8% CPU use with 16 MPI tasks x no OpenMP threads

MPI task timing breakdown:
Section |  min time  |  avg time  |  max time  |%varavg| %total
---------------------------------------------------------------
Pair    | 1.6508     | 1.7204     | 1.823      |   3.2 | 13.31
Neigh   | 0.593      | 0.60535    | 0.63406    |   1.4 |  4.68
Comm    | 0.3532     | 0.46687    | 0.54867    |   7.1 |  3.61
Output  | 6.1573     | 6.4073     | 10.109     |  37.8 | 49.56
Modify  | 0.020572   | 3.7227     | 3.9729     |  49.5 | 28.79
Other   |            | 0.00686    |            |       |  0.05

Nlocal:    62.5 ave 67 max 59 min
Histogram: 2 0 5 0 0 4 2 2 0 1
Nghost:    1855.62 ave 1885 max 1826 min
Histogram: 2 0 2 3 1 2 0 3 1 2
Neighs:    0 ave 0 max 0 min
Histogram: 16 0 0 0 0 0 0 0 0 0
FullNghs:  18652.8 ave 20109 max 17410 min
Histogram: 1 1 5 0 2 2 2 1 1 1

Total # of neighbors = 298444
Ave neighs/atom = 298.444
Neighbor list builds = 1000
Dangerous builds not checked
Setting up Verlet run ...
  Unit style    : real
  Current step  : 2000
  Time step     : 1
Per MPI rank memory allocation (min/avg/max) = 3.768 | 4.477 | 4.579 Mbytes
Step Temp E_pair E_mol TotEng Press Volume Lx Ly Lz S/CPU 
    2000    310.57431   -10495.224            0   -9570.3865   -11160.968     791.1377     9.248771     9.248771     9.248771            0 
    2100    311.08164   -10508.236            0   -9581.8877    987.91073    789.04134    9.2405946    9.2405946    9.2405946    77.655108 
    2200    298.50508   -10480.977            0   -9592.0802    1679.0148    787.06068    9.2328562    9.2328562    9.2328562    68.715966 
    2300    291.75328   -10468.541            0   -9599.7497   -5056.3127    785.35926    9.2261984    9.2261984    9.2261984    81.478178 
    2400    297.46263   -10493.929            0   -9608.1362    -7564.519    783.71897    9.2197707    9.2197707    9.2197707     93.36188 
    2500    282.77686   -10456.208            0   -9614.1465    4086.0251    782.19722    9.2137995    9.2137995    9.2137995    86.615287 
    2600    307.16313   -10535.832            0   -9621.1524    5651.5903    781.03075    9.2092171    9.2092171    9.2092171    55.052134 
    2700    299.56049   -10519.354            0    -9627.314     6459.231     780.1481    9.2057466    9.2057466    9.2057466    86.460992 
    2800    308.23262   -10551.632            0   -9633.7678   -1549.9408    779.90457    9.2047887    9.2047887    9.2047887    97.583653 
    2900      302.639   -10541.439            0   -9640.2313     4827.019    780.07938    9.2054763    9.2054763    9.2054763    61.489691 
    3000    298.28575   -10532.064            0     -9643.82   -3860.4485    780.62742    9.2076316    9.2076316    9.2076316    74.229261 
Loop time of 13.1673 on 16 procs for 1000 steps with 1000 atoms

Performance: 6.562 ns/day, 3.658 hours/ns, 75.946 timesteps/s
94.8% CPU use with 16 MPI tasks x no OpenMP threads

MPI task timing breakdown:
Section |  min time  |  avg time  |  max time  |%varavg| %total
---------------------------------------------------------------
Pair    | 1.6898     | 1.7328     | 1.7758     |   1.8 | 13.16
Neigh   | 0.59276    | 0.60639    | 0.62879    |   1.2 |  4.61
Comm    | 0.40085    | 0.4544     | 0.50344    |   4.3 |  3.45
Output  | 6.9105     | 7.1281     | 10.346     |  31.1 | 54.14
Modify  | 0.020413   | 3.2387     | 3.4564     |  46.2 | 24.60
Other   |            | 0.006905   |            |       |  0.05

Nlocal:    62.5 ave 69 max 58 min
Histogram: 1 3 3 3 1 1 2 0 1 1
Nghost:    1868.88 ave 1888 max 1849 min
Histogram: 1 0 1 1 4 5 1 1 0 2
Neighs:    0 ave 0 max 0 min
Histogram: 16 0 0 0 0 0 0 0 0 0
FullNghs:  18920.9 ave 21287 max 17714 min
Histogram: 2 4 2 3 1 2 0 1 0 1

Total # of neighbors = 302734
Ave neighs/atom = 302.734
Neighbor list builds = 1000
Dangerous builds not checked
Setting up Verlet run ...
  Unit style    : real
  Current step  : 3000
  Time step     : 1
Per MPI rank memory allocation (min/avg/max) = 4.577 | 4.578 | 4.579 Mbytes
Step Temp E_pair E_mol TotEng Press Volume Lx Ly Lz S/CPU 
    3000    298.28575   -10532.064            0     -9643.82   -3860.4485    780.62742    9.2076316    9.2076316    9.2076316            0 
    3100    297.52951   -10534.195            0   -9648.2025   -508.39486    780.94626     9.208885     9.208885     9.208885    54.339509 
    3200    300.49687   -10546.908            0   -9652.0798      272.641    781.14975    9.2096848    9.2096848    9.2096848    70.037991 
    3300    301.33458   -10552.145            0   -9654.8222    4277.4341    781.28147    9.2102024    9.2102024    9.2102024    69.076163 
    3400     304.3878   -10563.139            0   -9656.7244    8587.9332    781.69647    9.2118329    9.2118329    9.2118329    56.108442 
    3500    298.12173   -10545.638            0   -9657.8825   -1392.5809    782.70017    9.2157739    9.2157739    9.2157739    61.631705 
    3600    285.91054   -10508.839            0   -9657.4463    10735.624    784.20292     9.221668     9.221668     9.221668    63.250455 
    3700    290.01464   -10520.108            0   -9656.4943    15118.801    786.20756    9.2295191    9.2295191    9.2295191    51.654782 
    3800    289.63765   -10515.152            0   -9652.6609   -8578.6453     788.4924    9.2384512    9.2384512    9.2384512    53.914387 
    3900    299.27849   -10540.037            0   -9648.8365   -18457.494    790.43182    9.2460195    9.2460195    9.2460195    59.680363 
    4000    290.84443   -10509.087            0   -9643.0019   -15570.967    791.30448    9.2494209    9.2494209    9.2494209    58.655027 
Loop time of 16.8728 on 16 procs for 1000 steps with 1000 atoms

Performance: 5.121 ns/day, 4.687 hours/ns, 59.267 timesteps/s
94.6% CPU use with 16 MPI tasks x no OpenMP threads

MPI task timing breakdown:
Section |  min time  |  avg time  |  max time  |%varavg| %total
---------------------------------------------------------------
Pair    | 1.657      | 1.7242     | 1.7871     |   3.2 | 10.22
Neigh   | 0.58612    | 0.60575    | 0.63354    |   1.7 |  3.59
Comm    | 0.40757    | 0.4787     | 0.56607    |   7.3 |  2.84
Output  | 9.3853     | 9.6791     | 14.036     |  36.2 | 57.37
Modify  | 0.020541   | 4.3782     | 4.672      |  53.8 | 25.95
Other   |            | 0.006874   |            |       |  0.04

Nlocal:    62.5 ave 68 max 58 min
Histogram: 1 2 4 0 2 0 3 0 1 3
Nghost:    1853 ave 1872 max 1834 min
Histogram: 1 1 2 4 1 1 1 1 2 2
Neighs:    0 ave 0 max 0 min
Histogram: 16 0 0 0 0 0 0 0 0 0
FullNghs:  18641.4 ave 20529 max 16954 min
Histogram: 1 2 3 2 1 0 1 3 2 1

Total # of neighbors = 298262
Ave neighs/atom = 298.262
Neighbor list builds = 1000
Dangerous builds not checked
Setting up Verlet run ...
  Unit style    : real
  Current step  : 4000
  Time step     : 1
Per MPI rank memory allocation (min/avg/max) = 4.577 | 4.578 | 4.579 Mbytes
Step Temp E_pair E_mol TotEng Press Volume Lx Ly Lz S/CPU 
    4000    290.84443   -10509.087            0   -9643.0019   -15570.967    791.30448    9.2494209    9.2494209    9.2494209            0 
    4100    297.71879   -10521.276            0   -9634.7204   -5558.0415    791.28846    9.2493585    9.2493585    9.2493585    54.260714 
    4200    291.44686   -10493.394            0   -9625.5149   -6699.6622    790.53583     9.246425     9.246425     9.246425    63.654421 
    4300    295.36192   -10494.071            0   -9614.5337    3665.5968    789.02504     9.240531     9.240531     9.240531    52.814878 
    4400    292.28028   -10473.216            0   -9602.8554   -12944.491    786.76113    9.2316848    9.2316848    9.2316848     75.96931 
    4500    298.81913   -10481.997            0    -9592.165   -4131.4362     784.1704    9.2215406    9.2215406    9.2215406    67.033685 
    4600    304.42444   -10489.565            0   -9583.0413    15054.829    781.75679    9.2120698    9.2120698    9.2120698    46.696163 
    4700    305.36101   -10484.739            0   -9575.4262    14566.437     780.2298     9.206068     9.206068     9.206068    66.453643 
    4800     307.6797   -10486.208            0   -9569.9905   -4505.5055    779.61933    9.2036663    9.2036663    9.2036663    56.635933 
    4900    309.95816    -10489.65            0   -9566.6471    6031.5511    779.22369    9.2021092    9.2021092    9.2021092    73.678096 
    5000     306.8545   -10480.061            0   -9566.3002    14155.507    779.10972    9.2016605    9.2016605    9.2016605    70.331673 
Loop time of 16.3065 on 16 procs for 1000 steps with 1000 atoms

Performance: 5.298 ns/day, 4.530 hours/ns, 61.325 timesteps/s
94.6% CPU use with 16 MPI tasks x no OpenMP threads

MPI task timing breakdown:
Section |  min time  |  avg time  |  max time  |%varavg| %total
---------------------------------------------------------------
Pair    | 1.6634     | 1.7297     | 1.7888     |   2.8 | 10.61
Neigh   | 0.59439    | 0.60638    | 0.62966    |   1.2 |  3.72
Comm    | 0.42842    | 0.49219    | 0.56889    |   6.0 |  3.02
Output  | 9.2189     | 9.4865     | 13.451     |  33.2 | 58.18
Modify  | 0.020426   | 3.9849     | 4.2524     |  51.3 | 24.44
Other   |            | 0.006862   |            |       |  0.04

Nlocal:    62.5 ave 69 max 58 min
Histogram: 3 0 0 6 2 2 2 0 0 1
Nghost:    1876.62 ave 1892 max 1863 min
Histogram: 2 2 2 2 1 0 2 2 2 1
Neighs:    0 ave 0 max 0 min
Histogram: 16 0 0 0 0 0 0 0 0 0
FullNghs:  18950.8 ave 21176 max 17447 min
Histogram: 2 1 0 6 3 1 2 0 0 1

Total # of neighbors = 303212
Ave neighs/atom = 303.212
Neighbor list builds = 1000
Dangerous builds not checked
Setting up Verlet run ...
  Unit style    : real
  Current step  : 5000
  Time step     : 1
Per MPI rank memory allocation (min/avg/max) = 4.577 | 4.578 | 4.579 Mbytes
Step Temp E_pair E_mol TotEng Press Volume Lx Ly Lz S/CPU 
    5000     306.8545   -10480.061            0   -9566.3002    14155.507    779.10972    9.2016605    9.2016605    9.2016605            0 
    5100    302.33583   -10467.217            0   -9566.9122    3382.8537    779.69021    9.2039452    9.2039452    9.2039452    51.890252 
    5200    294.25268   -10445.991            0    -9569.757    21579.078    780.99557    9.2090788    9.2090788    9.2090788    71.764554 
    5300    298.57048   -10463.062            0   -9573.9701   -4121.4287     783.3967    9.2185068    9.2185068    9.2185068    45.435451 
    5400    308.20852   -10498.039            0   -9580.2464   -4445.7542    786.19896    9.2294854    9.2294854    9.2294854    66.366172 
    5500    307.55766   -10502.104            0   -9586.2499   -3614.9508    788.82751    9.2397598    9.2397598    9.2397598    55.659399 
    5600    304.25926   -10498.323            0   -9592.2907   -16528.333    791.04947    9.2484272    9.2484272    9.2484272    61.295849 
    5700     294.8457   -10476.893            0   -9598.8929   -4726.8184    792.68088    9.2547806    9.2547806    9.2547806    55.406674 
    5800    298.37561   -10494.829            0   -9606.3178   -12190.561    793.52929    9.2580812    9.2580812    9.2580812    65.239036 
    5900    288.78287   -10471.187            0   -9611.2408   -7677.2462    793.42019    9.2576569    9.2576569    9.2576569     65.48434 
    6000    293.30186   -10488.478            0   -9615.0747    2930.7676    792.65068    9.2546631    9.2546631    9.2546631     54.49342 
Loop time of 17.1562 on 16 procs for 1000 steps with 1000 atoms

Performance: 5.036 ns/day, 4.766 hours/ns, 58.288 timesteps/s
94.6% CPU use with 16 MPI tasks x no OpenMP threads

MPI task timing breakdown:
Section |  min time  |  avg time  |  max time  |%varavg| %total
---------------------------------------------------------------
Pair    | 1.6379     | 1.7105     | 1.7586     |   2.8 |  9.97
Neigh   | 0.58682    | 0.60478    | 0.62785    |   1.5 |  3.53
Comm    | 0.40422    | 0.46484    | 0.55495    |   6.6 |  2.71
Output  | 9.7423     | 10.033     | 14.349     |  35.2 | 58.48
Modify  | 0.020156   | 4.336      | 4.6271     |  53.5 | 25.27
Other   |            | 0.006861   |            |       |  0.04

Nlocal:    62.5 ave 70 max 56 min
Histogram: 1 1 2 2 2 4 1 2 0 1
Nghost:    1838.62 ave 1859 max 1816 min
Histogram: 1 1 0 3 2 2 3 3 0 1
Neighs:    0 ave 0 max 0 min
Histogram: 16 0 0 0 0 0 0 0 0 0
FullNghs:  18620.2 ave 20991 max 16584 min
Histogram: 1 1 2 3 2 3 2 1 0 1

Total # of neighbors = 297924
Ave neighs/atom = 297.924
Neighbor list builds = 1000
Dangerous builds not checked
Setting up Verlet run ...
  Unit style    : real
  Current step  : 6000
  Time step     : 1
Per MPI rank memory allocation (min/avg/max) = 4.577 | 4.578 | 4.579 Mbytes
Step Temp E_pair E_mol TotEng Press Volume Lx Ly Lz S/CPU 
    6000    293.30186   -10488.478            0   -9615.0747    2930.7676    792.65068    9.2546631    9.2546631    9.2546631            0 
    6100    299.18484   -10510.319            0   -9619.3974   -4235.1474    791.63812    9.2507206    9.2507206    9.2507206     73.47468 
    6200    289.46293   -10483.024            0    -9621.053   -8238.7322    790.23609    9.2452563    9.2452563    9.2452563    58.248513 
    6300    295.77998   -10505.986            0   -9625.2033   -13162.556    788.29419    9.2376771    9.2376771    9.2376771    56.136224 
    6400    299.15487   -10520.658            0   -9629.8255   -8438.5291    785.53636    9.2268919    9.2268919    9.2268919     66.07719 
    6500    283.75242   -10478.708            0   -9633.7413   -5042.1254    782.39553     9.214578     9.214578     9.214578    58.333857 
    6600    287.00248   -10495.411            0    -9640.767    3915.3339    779.22219    9.2021033    9.2021033    9.2021033    73.888229 
    6700    299.03064   -10540.347            0   -9649.8852    7669.8098    776.26068    9.1904307    9.1904307    9.1904307    47.116184 
    6800    294.73032   -10535.046            0   -9657.3891    11670.812    773.86458    9.1809648    9.1809648    9.1809648    66.679189 
    6900    281.38425   -10503.484            0   -9665.5697   -3341.4019    772.17387    9.1742739    9.1742739    9.1742739    73.178867 
    7000    277.33775   -10498.486            0   -9672.6214    5501.8239    770.89487    9.1692058    9.1692058    9.1692058    53.812982 
Loop time of 16.2872 on 16 procs for 1000 steps with 1000 atoms

Performance: 5.305 ns/day, 4.524 hours/ns, 61.398 timesteps/s
94.6% CPU use with 16 MPI tasks x no OpenMP threads

MPI task timing breakdown:
Section |  min time  |  avg time  |  max time  |%varavg| %total
---------------------------------------------------------------
Pair    | 1.6921     | 1.7392     | 1.8262     |   2.3 | 10.68
Neigh   | 0.59362    | 0.6076     | 0.64506    |   1.6 |  3.73
Comm    | 0.37439    | 0.47415    | 0.53063    |   5.8 |  2.91
Output  | 9.3402     | 9.5996     | 13.439     |  32.0 | 58.94
Modify  | 0.020117   | 3.8598     | 4.1194     |  50.5 | 23.70
Other   |            | 0.006867   |            |       |  0.04

Nlocal:    62.5 ave 68 max 58 min
Histogram: 2 0 0 3 4 3 1 0 2 1
Nghost:    1875 ave 1890 max 1856 min
Histogram: 2 1 0 1 2 2 3 1 2 2
Neighs:    0 ave 0 max 0 min
Histogram: 16 0 0 0 0 0 0 0 0 0
FullNghs:  19150.5 ave 20874 max 17618 min
Histogram: 2 0 0 5 3 2 1 1 1 1

Total # of neighbors = 306408
Ave neighs/atom = 306.408
Neighbor list builds = 1000
Dangerous builds not checked
Setting up Verlet run ...
  Unit style    : real
  Current step  : 7000
  Time step     : 1
Per MPI rank memory allocation (min/avg/max) = 4.577 | 4.578 | 4.579 Mbytes
Step Temp E_pair E_mol TotEng Press Volume Lx Ly Lz S/CPU 
    7000    277.33775   -10498.486            0   -9672.6214    5501.8239    770.89487    9.1692058    9.1692058    9.1692058            0 
    7100    294.34272   -10555.173            0   -9678.6711    -3242.091    769.99946    9.1656543    9.1656543    9.1656543    63.341898 
    7200    293.53197   -10555.401            0    -9681.313    23850.746    769.23067    9.1626029    9.1626029    9.1626029    61.670158 
    7300     295.5842   -10563.449            0   -9683.2499    11367.447    769.13884    9.1622382    9.1622382    9.1622382    60.652266 
    7400    294.34807    -10560.16            0    -9683.642    22307.265    769.49536    9.1636537    9.1636537    9.1636537     73.01324 
    7500    284.37612   -10528.636            0   -9681.8128    11834.003    770.74239    9.1686012    9.1686012    9.1686012    53.154421 
    7600    291.98948   -10548.587            0   -9679.0918    16175.234    773.05242    9.1777519    9.1777519    9.1777519    66.826667 
    7700    299.60063   -10564.844            0   -9672.6841    10308.836    776.56887    9.1916467    9.1916467    9.1916467    62.468272 
    7800    307.51444   -10580.523            0    -9664.798   -5716.9461    780.37475    9.2066381    9.2066381    9.2066381    68.893287 
    7900    287.92253   -10510.626            0   -9653.2423   -10622.878    783.57859    9.2192202    9.2192202    9.2192202    68.697219 
    8000    296.68237   -10525.926            0   -9642.4569   -17839.707    785.81285    9.2279743    9.2279743    9.2279743    55.459872 
Loop time of 15.9075 on 16 procs for 1000 steps with 1000 atoms

Performance: 5.431 ns/day, 4.419 hours/ns, 62.864 timesteps/s
94.6% CPU use with 16 MPI tasks x no OpenMP threads

MPI task timing breakdown:
Section |  min time  |  avg time  |  max time  |%varavg| %total
---------------------------------------------------------------
Pair    | 1.705      | 1.7775     | 1.8321     |   2.3 | 11.17
Neigh   | 0.59038    | 0.60975    | 0.64976    |   1.8 |  3.83
Comm    | 0.37904    | 0.47352    | 0.55773    |   6.0 |  2.98
Output  | 8.9038     | 9.164      | 13.019     |  32.9 | 57.61
Modify  | 0.0203     | 3.8759     | 4.136      |  50.6 | 24.37
Other   |            | 0.006906   |            |       |  0.04

Nlocal:    62.5 ave 68 max 56 min
Histogram: 1 0 1 1 4 3 2 1 2 1
Nghost:    1851.69 ave 1870 max 1825 min
Histogram: 1 0 2 1 1 2 2 3 3 1
Neighs:    0 ave 0 max 0 min
Histogram: 16 0 0 0 0 0 0 0 0 0
FullNghs:  18769.5 ave 20511 max 16817 min
Histogram: 1 0 2 2 3 1 2 3 1 1

Total # of neighbors = 300312
Ave neighs/atom = 300.312
Neighbor list builds = 1000
Dangerous builds not checked
Setting up Verlet run ...
  Unit style    : real
  Current step  : 8000
  Time step     : 1
Per MPI rank memory allocation (min/avg/max) = 4.577 | 4.578 | 4.579 Mbytes
Step Temp E_pair E_mol TotEng Press Volume Lx Ly Lz S/CPU 
    8000    296.68237   -10525.926            0   -9642.4569   -17839.707    785.81285    9.2279743    9.2279743    9.2279743            0 
    8100    290.84585   -10497.683            0   -9631.5936   -9362.0318    786.88902    9.2321849    9.2321849    9.2321849    65.136867 
    8200    289.87081   -10484.913            0   -9621.7273   -8357.1067    787.14849    9.2331996    9.2331996    9.2331996    74.103071 
    8300    289.27149   -10473.315            0   -9611.9139    1425.7721    786.57339    9.2309504    9.2309504    9.2309504    58.156206 
    8400    305.34272   -10513.877            0   -9604.6182    4045.4447    785.57649     9.227049     9.227049     9.227049    60.196512 
    8500     305.8966   -10510.352            0   -9599.4437    8706.4132    784.48443    9.2227714    9.2227714    9.2227714    45.660937 
    8600    306.93355   -10510.814            0    -9596.818    5888.7517    783.55487    9.2191271    9.2191271    9.2191271     65.67369 
    8700    313.08661   -10529.064            0   -9596.7456    2223.6781    782.83073    9.2162862    9.2162862    9.2162862    57.719174 
    8800    309.73833    -10519.86            0   -9597.5124    -6889.542    782.71561    9.2158344    9.2158344    9.2158344    73.924404 
    8900    306.84321   -10513.891            0   -9600.1642   -6856.1006    782.72398    9.2158673    9.2158673    9.2158673     50.92259 
    9000    311.43711   -10531.484            0   -9604.0771    9646.0303    782.85306    9.2163739    9.2163739    9.2163739    69.389364 
Loop time of 16.4684 on 16 procs for 1000 steps with 1000 atoms

Performance: 5.246 ns/day, 4.575 hours/ns, 60.722 timesteps/s
94.5% CPU use with 16 MPI tasks x no OpenMP threads

MPI task timing breakdown:
Section |  min time  |  avg time  |  max time  |%varavg| %total
---------------------------------------------------------------
Pair    | 1.6565     | 1.7252     | 1.7922     |   2.7 | 10.48
Neigh   | 0.58964    | 0.60571    | 0.64288    |   1.7 |  3.68
Comm    | 0.35247    | 0.45659    | 0.53721    |   6.8 |  2.77
Output  | 9.3822     | 9.6521     | 13.653     |  33.3 | 58.61
Modify  | 0.02015    | 4.022      | 4.292      |  51.5 | 24.42
Other   |            | 0.006837   |            |       |  0.04

Nlocal:    62.5 ave 70 max 57 min
Histogram: 3 1 2 1 2 1 5 0 0 1
Nghost:    1861.81 ave 1880 max 1848 min
Histogram: 1 2 3 4 0 1 2 1 1 1
Neighs:    0 ave 0 max 0 min
Histogram: 16 0 0 0 0 0 0 0 0 0
FullNghs:  18858.4 ave 21135 max 17133 min
Histogram: 3 1 2 1 0 4 4 0 0 1

Total # of neighbors = 301734
Ave neighs/atom = 301.734
Neighbor list builds = 1000
Dangerous builds not checked
Setting up Verlet run ...
  Unit style    : real
  Current step  : 9000
  Time step     : 1
Per MPI rank memory allocation (min/avg/max) = 4.577 | 4.578 | 4.579 Mbytes
Step Temp E_pair E_mol TotEng Press Volume Lx Ly Lz S/CPU 
    9000    311.43711   -10531.484            0   -9604.0771    9646.0303    782.85306    9.2163739    9.2163739    9.2163739            0 
    9100    292.19195   -10478.199            0   -9608.1009   -5763.4041    783.06098    9.2171897    9.2171897    9.2171897     56.72893 
    9200     305.1531   -10523.152            0    -9614.458   -3041.7031    783.26471     9.217989     9.217989     9.217989    56.178208 
    9300    295.92514   -10500.764            0   -9619.5498   -17016.522    783.61219     9.219352     9.219352     9.219352    60.373565 
    9400    291.72213   -10493.091            0   -9624.3923   -8977.7544    783.70673    9.2197227    9.2197227    9.2197227    59.817473 
    9500    291.36988    -10495.95            0   -9628.3006   -9874.4522    783.24427    9.2179088    9.2179088    9.2179088    72.575774 
    9600    299.20973   -10523.314            0   -9632.3187   -292.71452     782.1092    9.2134538    9.2134538    9.2134538    76.089964 
    9700    305.67453     -10545.6            0   -9635.3536    9121.7798    780.91185    9.2087497    9.2087497    9.2087497    56.951506 
    9800     293.9844   -10515.223            0   -9639.7872    8271.3953    780.19235    9.2059207    9.2059207    9.2059207    65.177882 
    9900    302.62856   -10545.844            0   -9644.6678    -11968.71    780.00223    9.2051729    9.2051729    9.2051729    66.263671 
   10000    283.80689   -10492.709            0   -9647.5805    6321.5469    779.91568    9.2048324    9.2048324    9.2048324    65.439566 
Loop time of 15.8904 on 16 procs for 1000 steps with 1000 atoms

Performance: 5.437 ns/day, 4.414 hours/ns, 62.931 timesteps/s
94.6% CPU use with 16 MPI tasks x no OpenMP threads

MPI task timing breakdown:
Section |  min time  |  avg time  |  max time  |%varavg| %total
---------------------------------------------------------------
Pair    | 1.6315     | 1.7329     | 1.8063     |   3.0 | 10.91
Neigh   | 0.58637    | 0.60728    | 0.63881    |   1.7 |  3.82
Comm    | 0.37295    | 0.45387    | 0.57616    |   7.4 |  2.86
Output  | 8.772      | 9.0435     | 13.069     |  34.6 | 56.91
Modify  | 0.019955   | 4.046      | 4.3177     |  51.7 | 25.46
Other   |            | 0.006859   |            |       |  0.04

Nlocal:    62.5 ave 68 max 58 min
Histogram: 1 1 2 2 4 0 2 1 2 1
Nghost:    1862 ave 1880 max 1832 min
Histogram: 1 1 0 1 1 2 2 4 3 1
Neighs:    0 ave 0 max 0 min
Histogram: 16 0 0 0 0 0 0 0 0 0
FullNghs:  18930 ave 20632 max 17468 min
Histogram: 1 3 0 4 2 1 1 3 0 1

Total # of neighbors = 302880
Ave neighs/atom = 302.88
Neighbor list builds = 1000
Dangerous builds not checked
Setting up Verlet run ...
  Unit style    : real
  Current step  : 10000
  Time step     : 1
Per MPI rank memory allocation (min/avg/max) = 4.577 | 4.578 | 4.579 Mbytes
Step Temp E_pair E_mol TotEng Press Volume Lx Ly Lz S/CPU 
   10000    283.80689   -10492.709            0   -9647.5805    6321.5469    779.91568    9.2048324    9.2048324    9.2048324            0 
   10100    285.46477   -10504.528            0   -9654.4624    13405.033    780.19588    9.2059346    9.2059346    9.2059346    73.668749 
   10200    299.90097   -10553.658            0   -9660.6038    -5784.863     781.0471    9.2092814    9.2092814    9.2092814    51.558232 
   10300     293.5066   -10541.571            0   -9667.5581    -1937.586    782.14733    9.2136036    9.2136036    9.2136036    69.838973 
   10400    299.13806   -10569.901            0   -9679.1188   -5043.4836    783.21693    9.2178016    9.2178016    9.2178016    56.277316 
   10500    297.00236   -10576.861            0   -9692.4382   -17588.327    783.79889    9.2200841    9.2200841    9.2200841    66.226484 
   10600    291.58221   -10576.708            0   -9708.4264   -6268.7262    783.53782    9.2190603    9.2190603    9.2190603    49.434931 
   10700    288.72386   -10581.712            0    -9721.942   -12343.947     783.0176    9.2170195    9.2170195    9.2170195     45.99018 
   10800    288.10649   -10589.029            0   -9731.0973   -3555.7682    781.55747    9.2112869    9.2112869    9.2112869    69.434671 
   10900    286.21053   -10588.563            0   -9736.2771   -3358.2632    779.37151     9.202691     9.202691     9.202691    54.638163 
   11000    289.08974   -10598.738            0   -9737.8785   -8397.6489    777.02119     9.193431     9.193431     9.193431    52.194995 
Loop time of 17.3993 on 16 procs for 1000 steps with 1000 atoms

Performance: 4.966 ns/day, 4.833 hours/ns, 57.473 timesteps/s
94.5% CPU use with 16 MPI tasks x no OpenMP threads

MPI task timing breakdown:
Section |  min time  |  avg time  |  max time  |%varavg| %total
---------------------------------------------------------------
Pair    | 1.6488     | 1.7342     | 1.8001     |   2.8 |  9.97
Neigh   | 0.59019    | 0.60773    | 0.63861    |   1.7 |  3.49
Comm    | 0.40383    | 0.4769     | 0.57985    |   6.8 |  2.74
Output  | 9.6734     | 9.9817     | 14.553     |  37.4 | 57.37
Modify  | 0.020115   | 4.592      | 4.9002     |  55.1 | 26.39
Other   |            | 0.0069     |            |       |  0.04

Nlocal:    62.5 ave 68 max 56 min
Histogram: 1 1 1 1 1 6 0 1 1 3
Nghost:    1876.38 ave 1890 max 1862 min
Histogram: 2 0 1 1 3 3 2 3 0 1
Neighs:    0 ave 0 max 0 min
Histogram: 16 0 0 0 0 0 0 0 0 0
FullNghs:  18999 ave 20775 max 17035 min
Histogram: 1 1 1 2 5 1 0 2 1 2

Total # of neighbors = 303984
Ave neighs/atom = 303.984
Neighbor list builds = 1000
Dangerous builds not checked
Setting up Verlet run ...
  Unit style    : real
  Current step  : 11000
  Time step     : 1
Per MPI rank memory allocation (min/avg/max) = 4.577 | 4.578 | 4.579 Mbytes
Step Temp E_pair E_mol TotEng Press Volume Lx Ly Lz S/CPU 
   11000    289.08974   -10598.738            0   -9737.8785   -8397.6489    777.02119     9.193431     9.193431     9.193431            0 
   11100     283.3658   -10579.225            0   -9735.4105    4649.0833    774.78828    9.1846162    9.1846162    9.1846162    50.122024 
   11200    293.05435   -10603.762            0   -9731.0959    23837.993    773.29653    9.1787178    9.1787178    9.1787178    68.121126 
   11300     290.5887   -10588.058            0   -9722.7347    16246.024    773.14252    9.1781085    9.1781085    9.1781085    58.852449 
   11400    293.60454   -10588.869            0   -9714.5652   -5981.9657    773.88234     9.181035     9.181035     9.181035    59.810337 
   11500    296.62551   -10587.531            0   -9704.2313    8847.7291    774.96423    9.1853114    9.1853114    9.1853114    62.621532 
   11600    300.40543   -10588.494            0   -9693.9379    5286.8291    776.21768    9.1902609    9.1902609    9.1902609    54.049433 
   11700     291.4434   -10551.112            0   -9683.2429    34.997146    778.03763     9.197438     9.197438     9.197438     70.82267 
   11800    304.44806   -10582.836            0   -9676.2417   -1761.8828    780.20082     9.205954     9.205954     9.205954    68.181329 
   11900    292.20923   -10538.961            0   -9668.8121   -16238.407    782.23037    9.2139296    9.2139296    9.2139296    54.609196 
   12000    284.36864   -10510.353            0   -9663.5513    8617.7292    783.57413    9.2192027    9.2192027    9.2192027    68.696208 
Loop time of 16.4468 on 16 procs for 1000 steps with 1000 atoms

Performance: 5.253 ns/day, 4.569 hours/ns, 60.802 timesteps/s
94.6% CPU use with 16 MPI tasks x no OpenMP threads

MPI task timing breakdown:
Section |  min time  |  avg time  |  max time  |%varavg| %total
---------------------------------------------------------------
Pair    | 1.7028     | 1.7562     | 1.8367     |   2.8 | 10.68
Neigh   | 0.59223    | 0.61       | 0.62602    |   1.3 |  3.71
Comm    | 0.35764    | 0.45432    | 0.51996    |   6.5 |  2.76
Output  | 9.3473     | 9.6161     | 13.599     |  33.2 | 58.47
Modify  | 0.020108   | 4.0033     | 4.2721     |  51.4 | 24.34
Other   |            | 0.006891   |            |       |  0.04

Nlocal:    62.5 ave 65 max 59 min
Histogram: 2 1 0 2 0 2 4 0 1 4
Nghost:    1865.94 ave 1883 max 1839 min
Histogram: 1 0 3 0 0 4 0 4 0 4
Neighs:    0 ave 0 max 0 min
Histogram: 16 0 0 0 0 0 0 0 0 0
FullNghs:  18834.5 ave 19703 max 17714 min
Histogram: 2 0 1 2 1 2 2 1 2 3

Total # of neighbors = 301352
Ave neighs/atom = 301.352
Neighbor list builds = 1000
Dangerous builds not checked
Setting up Verlet run ...
  Unit style    : real
  Current step  : 12000
  Time step     : 1
Per MPI rank memory allocation (min/avg/max) = 4.577 | 4.578 | 4.579 Mbytes
Step Temp E_pair E_mol TotEng Press Volume Lx Ly Lz S/CPU 
   12000    284.36864   -10510.353            0   -9663.5513    8617.7292    783.57413    9.2192027    9.2192027    9.2192027            0 
   12100    295.50214   -10538.555            0   -9658.6004   -4316.6478    784.64604    9.2234046    9.2234046    9.2234046     61.24359 
   12200    300.50907   -10549.238            0   -9654.3736   -6328.5149    785.18643    9.2255216    9.2255216    9.2255216    59.435132 
   12300     301.8496   -10550.053            0   -9651.1966   -1004.7643    785.19327    9.2255484    9.2255484    9.2255484    78.847672 
   12400    300.13648   -10541.122            0   -9647.3672    2778.7167     785.1762    9.2254815    9.2254815    9.2254815    54.973025 
   12500    288.00401   -10499.444            0   -9641.8168    4031.8963    785.40851    9.2263912    9.2263912    9.2263912     69.66285 
   12600    292.95524   -10510.216            0   -9637.8456    6654.0023    786.10772    9.2291284    9.2291284    9.2291284     42.24744 
   12700    306.23451   -10545.051            0   -9633.1368   -10669.261    787.01457    9.2326759    9.2326759    9.2326759    62.811332 
   12800    303.23847   -10531.475            0   -9628.4823    1716.5739    787.75943    9.2355877    9.2355877    9.2355877    51.086618 
   12900    300.09978   -10516.629            0   -9622.9828   -1638.8263    788.50922    9.2385169    9.2385169    9.2385169    75.677013 
   13000    303.00156   -10520.183            0   -9617.8962   -2851.9349    789.14261      9.24099      9.24099      9.24099    64.718856 
Loop time of 16.6213 on 16 procs for 1000 steps with 1000 atoms

Performance: 5.198 ns/day, 4.617 hours/ns, 60.164 timesteps/s
94.5% CPU use with 16 MPI tasks x no OpenMP threads

MPI task timing breakdown:
Section |  min time  |  avg time  |  max time  |%varavg| %total
---------------------------------------------------------------
Pair    | 1.6461     | 1.7122     | 1.7629     |   2.2 | 10.30
Neigh   | 0.59078    | 0.60731    | 0.6518     |   1.7 |  3.65
Comm    | 0.37266    | 0.46765    | 0.55004    |   5.6 |  2.81
Output  | 9.3562     | 9.6375     | 13.806     |  34.7 | 57.98
Modify  | 0.020328   | 4.1897     | 4.4711     |  52.6 | 25.21
Other   |            | 0.006862   |            |       |  0.04

Nlocal:    62.5 ave 68 max 55 min
Histogram: 1 0 1 3 1 2 3 1 1 3
Nghost:    1847.88 ave 1874 max 1825 min
Histogram: 3 0 3 2 0 1 3 2 1 1
Neighs:    0 ave 0 max 0 min
Histogram: 16 0 0 0 0 0 0 0 0 0
FullNghs:  18708 ave 20582 max 16251 min
Histogram: 1 0 2 1 2 3 1 3 0 3

Total # of neighbors = 299328
Ave neighs/atom = 299.328
Neighbor list builds = 1000
Dangerous builds not checked
Setting up Verlet run ...
  Unit style    : real
  Current step  : 13000
  Time step     : 1
Per MPI rank memory allocation (min/avg/max) = 4.577 | 4.578 | 4.579 Mbytes
Step Temp E_pair E_mol TotEng Press Volume Lx Ly Lz S/CPU 
   13000    303.00156   -10520.183            0   -9617.8962   -2851.9349    789.14261      9.24099      9.24099      9.24099            0 
   13100    289.54088   -10472.902            0    -9610.699   -1449.0803    789.80582     9.243578     9.243578     9.243578    70.444806 
   13200    299.53237   -10495.665            0   -9603.7092   -7258.4338    790.41631     9.245959     9.245959     9.245959     65.09515 
   13300    301.65598   -10493.461            0   -9595.1806   -11949.218    790.66704    9.2469366    9.2469366    9.2469366    57.887476 
   13400    292.42076   -10456.512            0   -9585.7327   -2401.6595    790.38188    9.2458248    9.2458248    9.2458248    72.674896 
   13500    298.72026   -10467.757            0   -9578.2192   -3030.4917     789.9263     9.244048     9.244048     9.244048    74.145855 
   13600    299.05187   -10461.721            0    -9571.196   -5805.0876    789.72975    9.2432812    9.2432812    9.2432812    62.377352 
   13700    303.01301   -10467.415            0   -9565.0936   -164.60029    789.72981    9.2432815    9.2432815    9.2432815     72.69831 
   13800    295.40611   -10439.009            0   -9559.3399     8239.078    790.01594    9.2443977    9.2443977    9.2443977    53.423514 
   13900    296.96486   -10438.736            0   -9554.4249   -7898.4891    790.14388    9.2448967    9.2448967    9.2448967    59.868696 
   14000    309.67023   -10474.484            0   -9552.3394   -7799.9452    789.96577     9.244202     9.244202     9.244202    55.624701 
Loop time of 15.7266 on 16 procs for 1000 steps with 1000 atoms

Performance: 5.494 ns/day, 4.368 hours/ns, 63.587 timesteps/s
94.6% CPU use with 16 MPI tasks x no OpenMP threads

MPI task timing breakdown:
Section |  min time  |  avg time  |  max time  |%varavg| %total
---------------------------------------------------------------
Pair    | 1.6402     | 1.699      | 1.7722     |   2.8 | 10.80
Neigh   | 0.59003    | 0.60506    | 0.64047    |   1.8 |  3.85
Comm    | 0.39831    | 0.48523    | 0.55438    |   6.7 |  3.09
Output  | 8.8607     | 9.1169     | 12.91      |  32.4 | 57.97
Modify  | 0.020204   | 3.8135     | 4.07       |  50.2 | 24.25
Other   |            | 0.006799   |            |       |  0.04

Nlocal:    62.5 ave 67 max 60 min
Histogram: 4 1 4 0 3 0 0 3 0 1
Nghost:    1842.81 ave 1857 max 1827 min
Histogram: 2 2 1 0 2 1 1 2 4 1
Neighs:    0 ave 0 max 0 min
Histogram: 16 0 0 0 0 0 0 0 0 0
FullNghs:  18680.6 ave 20083 max 17816 min
Histogram: 3 2 2 2 3 0 2 1 0 1

Total # of neighbors = 298890
Ave neighs/atom = 298.89
Neighbor list builds = 1000
Dangerous builds not checked
Setting up Verlet run ...
  Unit style    : real
  Current step  : 14000
  Time step     : 1
Per MPI rank memory allocation (min/avg/max) = 4.577 | 4.578 | 4.579 Mbytes
Step Temp E_pair E_mol TotEng Press Volume Lx Ly Lz S/CPU 
   14000    309.67023   -10474.484            0   -9552.3394   -7799.9452    789.96577     9.244202     9.244202     9.244202            0 
   14100    303.64199    -10453.59            0   -9549.3964    1738.9788    789.61689    9.2428409    9.2428409    9.2428409    66.351927 
   14200    317.68562   -10496.118            0   -9550.1047   -11622.142    789.33805    9.2417528    9.2417528    9.2417528    69.532112 
   14300    301.50057   -10448.308            0   -9550.4905   -10356.845    789.01215    9.2404807    9.2404807    9.2404807     58.05383 
   14400    303.63504   -10456.463            0     -9552.29   -9613.8679    788.33413    9.2378331    9.2378331    9.2378331    69.190553 
   14500    305.64396     -10465.6            0   -9555.4446   -15525.716     786.9313    9.2323503    9.2323503    9.2323503    52.726212 
   14600    303.80558   -10462.864            0   -9558.1833   -10249.438    784.60108    9.2232285    9.2232285    9.2232285     72.45633 
   14700    297.61055   -10447.066            0   -9560.8327    7625.7349    781.87482    9.2125334    9.2125334    9.2125334    69.942219 
   14800     303.7916   -10467.367            0   -9562.7275    3693.5594    779.54965    9.2033922    9.2033922    9.2033922    56.089269 
   14900    298.00913   -10450.934            0   -9563.5137    17559.108    777.92653    9.1970002    9.1970002    9.1970002    64.926911 
   15000    303.59176    -10468.86            0   -9564.8155    112.24417    777.01503    9.1934067    9.1934067    9.1934067    66.013016 
Loop time of 15.6575 on 16 procs for 1000 steps with 1000 atoms

Performance: 5.518 ns/day, 4.349 hours/ns, 63.867 timesteps/s
94.6% CPU use with 16 MPI tasks x no OpenMP threads

MPI task timing breakdown:
Section |  min time  |  avg time  |  max time  |%varavg| %total
---------------------------------------------------------------
Pair    | 1.6753     | 1.7273     | 1.7865     |   2.3 | 11.03
Neigh   | 0.59072    | 0.60617    | 0.64261    |   1.9 |  3.87
Comm    | 0.39916    | 0.48133    | 0.54557    |   6.0 |  3.07
Output  | 8.4393     | 8.716      | 12.815     |  35.9 | 55.67
Modify  | 0.020196   | 4.1199     | 4.3967     |  52.2 | 26.31
Other   |            | 0.006852   |            |       |  0.04

Nlocal:    62.5 ave 67 max 56 min
Histogram: 1 1 2 0 1 2 2 2 3 2
Nghost:    1874.88 ave 1887 max 1862 min
Histogram: 1 0 3 1 3 1 2 3 1 1
Neighs:    0 ave 0 max 0 min
Histogram: 16 0 0 0 0 0 0 0 0 0
FullNghs:  19000.8 ave 20379 max 16968 min
Histogram: 1 1 2 0 1 2 2 2 3 2

Total # of neighbors = 304012
Ave neighs/atom = 304.012
Neighbor list builds = 1000
Dangerous builds not checked
Setting up Verlet run ...
  Unit style    : real
  Current step  : 15000
  Time step     : 1
Per MPI rank memory allocation (min/avg/max) = 4.577 | 4.578 | 4.579 Mbytes
Step Temp E_pair E_mol TotEng Press Volume Lx Ly Lz S/CPU 
   15000    303.59176    -10468.86            0   -9564.8155    112.24417    777.01503    9.1934067    9.1934067    9.1934067            0 
   15100    308.54834   -10484.682            0   -9565.8782    20569.301    776.72259    9.1922532    9.1922532    9.1922532    62.650386 
   15200    289.88322    -10431.72            0   -9568.4974    10085.243    776.90933    9.1929898    9.1929898    9.1929898     72.29653 
   15300    304.85494   -10479.525            0    -9571.719    4622.5027    777.54516     9.195497     9.195497     9.195497    56.348062 
   15400     301.2437   -10472.679            0   -9575.6269    7789.4276    779.17077    9.2019009    9.2019009    9.2019009    69.592825 
   15500    297.94074   -10469.291            0   -9582.0743     11124.91    781.82143    9.2123237    9.2123237    9.2123237    62.525564 
   15600    295.29705   -10466.847            0   -9587.5024    1105.4078    785.35744    9.2261913    9.2261913    9.2261913    68.781717 
   15700    287.80961    -10449.13            0   -9592.0826   -14792.466    789.01155    9.2404783    9.2404783    9.2404783     59.62049 
   15800    289.92326   -10461.163            0   -9597.8211   -21600.452    791.98305     9.252064     9.252064     9.252064    70.641956 
   15900    294.99174   -10480.545            0   -9602.1101   -24946.834    793.71895    9.2588187    9.2588187    9.2588187    66.370958 
   16000    291.69062   -10474.815            0   -9606.2102   -19186.309    794.13504    9.2604364    9.2604364    9.2604364     67.04795 
Loop time of 15.3352 on 16 procs for 1000 steps with 1000 atoms

Performance: 5.634 ns/day, 4.260 hours/ns, 65.209 timesteps/s
94.6% CPU use with 16 MPI tasks x no OpenMP threads

MPI task timing breakdown:
Section |  min time  |  avg time  |  max time  |%varavg| %total
---------------------------------------------------------------
Pair    | 1.6708     | 1.7316     | 1.833      |   2.7 | 11.29
Neigh   | 0.59096    | 0.60742    | 0.65008    |   1.7 |  3.96
Comm    | 0.32361    | 0.46748    | 0.54507    |   6.7 |  3.05
Output  | 8.1303     | 8.4066     | 12.501     |  36.5 | 54.82
Modify  | 0.020237   | 4.1153     | 4.3917     |  52.1 | 26.84
Other   |            | 0.006843   |            |       |  0.04

Nlocal:    62.5 ave 68 max 58 min
Histogram: 2 0 3 2 1 3 0 2 1 2
Nghost:    1833.94 ave 1848 max 1822 min
Histogram: 2 1 1 1 4 2 3 1 0 1
Neighs:    0 ave 0 max 0 min
Histogram: 16 0 0 0 0 0 0 0 0 0
FullNghs:  18598.9 ave 20152 max 17127 min
Histogram: 2 0 3 2 2 2 0 2 1 2

Total # of neighbors = 297582
Ave neighs/atom = 297.582
Neighbor list builds = 1000
Dangerous builds not checked
Setting up Verlet run ...
  Unit style    : real
  Current step  : 16000
  Time step     : 1
Per MPI rank memory allocation (min/avg/max) = 4.577 | 4.578 | 4.579 Mbytes
Step Temp E_pair E_mol TotEng Press Volume Lx Ly Lz S/CPU 
   16000    291.69062   -10474.815            0   -9606.2102   -19186.309    794.13504    9.2604364    9.2604364    9.2604364            0 
   16100    285.50483    -10460.09            0    -9609.905   -23639.405    793.07793    9.2563256    9.2563256    9.2563256    66.106963 
   16200    289.32561   -10474.716            0   -9613.1541   -6184.5751    790.37549    9.2457998    9.2457998    9.2457998    66.863708 
   16300    304.14923   -10524.214            0   -9618.5091   -15426.922    786.60715    9.2310824    9.2310824    9.2310824      56.2187 
   16400    292.24019   -10490.713            0   -9620.4713   -950.83335    782.33159     9.214327     9.214327     9.214327    71.628436 
   16500    298.38329   -10512.549            0   -9624.0143   -5053.5912    778.07478    9.1975843    9.1975843    9.1975843    53.512645 
   16600    300.27345   -10523.209            0   -9629.0462    12227.576    774.19284    9.1822628    9.1822628    9.1822628    70.497416 
   16700    307.89141   -10551.442            0   -9634.5936    30506.697    771.11099    9.1700625    9.1700625    9.1700625    57.459249 
   16800     296.0329   -10522.063            0   -9640.5277    34712.124    769.77567    9.1647663    9.1647663    9.1647663    56.014896 
   16900    297.91413    -10536.24            0   -9649.1031    21473.423    770.26926    9.1667247    9.1667247    9.1667247    68.843406 
   17000    294.27476   -10534.977            0   -9658.6773    15325.907    772.14931    9.1741766    9.1741766    9.1741766    48.549021 
Loop time of 16.5083 on 16 procs for 1000 steps with 1000 atoms

Performance: 5.234 ns/day, 4.586 hours/ns, 60.575 timesteps/s
94.5% CPU use with 16 MPI tasks x no OpenMP threads

MPI task timing breakdown:
Section |  min time  |  avg time  |  max time  |%varavg| %total
---------------------------------------------------------------
Pair    | 1.681      | 1.748      | 1.8021     |   2.6 | 10.59
Neigh   | 0.59074    | 0.60844    | 0.64225    |   1.8 |  3.69
Comm    | 0.40145    | 0.48925    | 0.5716     |   6.5 |  2.96
Output  | 8.9984     | 9.2912     | 13.635     |  36.8 | 56.28
Modify  | 0.020147   | 4.3646     | 4.6574     |  53.7 | 26.44
Other   |            | 0.006887   |            |       |  0.04

Nlocal:    62.5 ave 68 max 58 min
Histogram: 1 1 2 2 2 4 0 1 2 1
Nghost:    1890.69 ave 1906 max 1875 min
Histogram: 2 0 1 3 1 5 0 1 0 3
Neighs:    0 ave 0 max 0 min
Histogram: 16 0 0 0 0 0 0 0 0 0
FullNghs:  19116.2 ave 20700 max 17478 min
Histogram: 1 1 1 2 3 3 1 1 2 1

Total # of neighbors = 305860
Ave neighs/atom = 305.86
Neighbor list builds = 1000
Dangerous builds not checked
Setting up Verlet run ...
  Unit style    : real
  Current step  : 17000
  Time step     : 1
Per MPI rank memory allocation (min/avg/max) = 4.577 | 4.578 | 4.579 Mbytes
Step Temp E_pair E_mol TotEng Press Volume Lx Ly Lz S/CPU 
   17000    294.27476   -10534.977            0   -9658.6773    15325.907    772.14931    9.1741766    9.1741766    9.1741766            0 
   17100    300.63734   -10564.122            0   -9668.8756    19933.828     775.0793    9.1857661    9.1857661    9.1857661    67.617386 
   17200     285.9158   -10528.406            0   -9676.9977    13471.432    779.10142    9.2016279    9.2016279    9.2016279    57.079211 
   17300    290.24016   -10548.496            0   -9684.2107    2907.4547    783.54999     9.219108     9.219108     9.219108    69.776843 
   17400    290.38576   -10554.063            0   -9689.3439   -7239.0187    787.48222    9.2345043    9.2345043    9.2345043    74.421267 
   17500    286.35418    -10543.48            0   -9690.7664    -19772.17    790.18791    9.2450683    9.2450683    9.2450683    53.658769 
   17600    289.93642   -10554.913            0   -9691.5318   -12159.495    791.16023    9.2488588    9.2488588    9.2488588    63.607208 
   17700    288.37971   -10547.364            0   -9688.6183    -16901.51    790.81826     9.247526     9.247526     9.247526    54.554757 
   17800    281.82324   -10521.095            0   -9681.8732   -10229.871    789.56938    9.2426555    9.2426555    9.2426555    71.938022 
   17900    285.29789   -10520.564            0   -9670.9957   -6112.7693    787.58119    9.2348911    9.2348911    9.2348911    79.281137 
   18000    297.18714   -10538.962            0   -9653.9897   -10575.507    785.02325    9.2248824    9.2248824    9.2248824    59.768018 
Loop time of 15.6011 on 16 procs for 1000 steps with 1000 atoms

Performance: 5.538 ns/day, 4.334 hours/ns, 64.098 timesteps/s
94.6% CPU use with 16 MPI tasks x no OpenMP threads

MPI task timing breakdown:
Section |  min time  |  avg time  |  max time  |%varavg| %total
---------------------------------------------------------------
Pair    | 1.6042     | 1.7167     | 1.8024     |   3.8 | 11.00
Neigh   | 0.58291    | 0.60524    | 0.62998    |   1.5 |  3.88
Comm    | 0.36324    | 0.46555    | 0.60003    |   8.4 |  2.98
Output  | 8.5679     | 8.8346     | 12.786     |  34.3 | 56.63
Modify  | 0.019952   | 3.9722     | 4.2388     |  51.2 | 25.46
Other   |            | 0.006812   |            |       |  0.04

Nlocal:    62.5 ave 65 max 56 min
Histogram: 1 0 0 0 0 1 5 5 2 2
Nghost:    1851.19 ave 1866 max 1833 min
Histogram: 3 0 0 1 2 1 5 0 1 3
Neighs:    0 ave 0 max 0 min
Histogram: 16 0 0 0 0 0 0 0 0 0
FullNghs:  18785.9 ave 19577 max 16768 min
Histogram: 1 0 0 0 0 1 4 5 3 2

Total # of neighbors = 300574
Ave neighs/atom = 300.574
Neighbor list builds = 1000
Dangerous builds not checked
Setting up Verlet run ...
  Unit style    : real
  Current step  : 18000
  Time step     : 1
Per MPI rank memory allocation (min/avg/max) = 4.577 | 4.578 | 4.579 Mbytes
Step Temp E_pair E_mol TotEng Press Volume Lx Ly Lz S/CPU 
   18000    297.18714   -10538.962            0   -9653.9897   -10575.507    785.02325    9.2248824    9.2248824    9.2248824            0 
   18100    284.96065   -10484.667            0   -9636.1025    10089.356    782.04215    9.2131905    9.2131905    9.2131905    75.716405 
   18200    300.45751    -10516.74            0   -9622.0285   -5665.4307    779.30594     9.202433     9.202433     9.202433    52.494391 
   18300     293.9455   -10486.598            0   -9611.2788    15472.351    776.68602     9.192109     9.192109     9.192109    67.155458 
   18400    291.79059   -10473.869            0   -9604.9661    15595.924    774.71173    9.1843137    9.1843137    9.1843137    76.780376 
   18500    312.97006   -10533.022            0   -9601.0507    13350.138    773.84152    9.1808736    9.1808736    9.1808736    58.140638 
   18600    297.65002    -10482.59            0   -9596.2388     8186.711    774.07128    9.1817821    9.1817821    9.1817821    70.841984 
   18700    295.62175   -10475.686            0   -9595.3748    9362.7803    775.43166    9.1871578    9.1871578    9.1871578    59.013452 
   18800    300.58175   -10487.805            0   -9592.7238    8731.6346    777.35221    9.1947363    9.1947363    9.1947363    72.296242 
   18900    302.86499   -10491.658            0   -9589.7778    6048.0965    779.79301    9.2043498    9.2043498    9.2043498    85.175926 
   19000    304.42448   -10494.712            0   -9588.1878   -893.44054    782.66769    9.2156464    9.2156464    9.2156464    75.392135 
Loop time of 14.7269 on 16 procs for 1000 steps with 1000 atoms

Performance: 5.867 ns/day, 4.091 hours/ns, 67.903 timesteps/s
94.7% CPU use with 16 MPI tasks x no OpenMP threads

MPI task timing breakdown:
Section |  min time  |  avg time  |  max time  |%varavg| %total
---------------------------------------------------------------
Pair    | 1.6708     | 1.7601     | 1.8241     |   2.9 | 11.95
Neigh   | 0.58963    | 0.60811    | 0.64539    |   1.8 |  4.13
Comm    | 0.36806    | 0.46479    | 0.57301    |   7.4 |  3.16
Output  | 7.5971     | 7.8674     | 11.867     |  36.8 | 53.42
Modify  | 0.020287   | 4.0197     | 4.2899     |  51.5 | 27.29
Other   |            | 0.006878   |            |       |  0.05

Nlocal:    62.5 ave 68 max 58 min
Histogram: 1 1 1 3 2 4 1 0 2 1
Nghost:    1859.06 ave 1869 max 1845 min
Histogram: 3 1 1 0 0 1 1 4 2 3
Neighs:    0 ave 0 max 0 min
Histogram: 16 0 0 0 0 0 0 0 0 0
FullNghs:  18847.1 ave 20544 max 17285 min
Histogram: 1 1 1 4 2 3 1 0 2 1

Total # of neighbors = 301554
Ave neighs/atom = 301.554
Neighbor list builds = 1000
Dangerous builds not checked
Setting up Verlet run ...
  Unit style    : real
  Current step  : 19000
  Time step     : 1
Per MPI rank memory allocation (min/avg/max) = 4.577 | 4.578 | 4.579 Mbytes
Step Temp E_pair E_mol TotEng Press Volume Lx Ly Lz S/CPU 
   19000    304.42448   -10494.712            0   -9588.1878   -893.44054    782.66769    9.2156464    9.2156464    9.2156464            0 
   19100    303.85812   -10491.804            0   -9586.9668    5905.4046    785.54262    9.2269164    9.2269164    9.2269164    100.60284 
   19200    310.06546   -10510.168            0   -9586.8455   -2600.6514    788.32069    9.2377806    9.2377806    9.2377806    85.934554 
   19300    302.40334   -10487.605            0   -9587.0994    14295.818     790.5603    9.2465204    9.2465204    9.2465204    84.239745 
   19400    295.14614   -10467.204            0   -9588.3093     -16914.3    792.59432    9.2544437    9.2544437    9.2544437    61.908144 
   19500    297.70994   -10478.111            0   -9591.5811   -5805.1405    793.61679    9.2584215    9.2584215    9.2584215    104.02635 
   19600      299.473   -10488.256            0   -9596.4768   -10038.448    793.78251    9.2590659    9.2590659    9.2590659    95.300665 
   19700    300.66858   -10497.341            0   -9602.0011   -14153.801    792.72067    9.2549354    9.2549354    9.2549354    56.413819 
   19800    290.99509   -10475.295            0    -9608.761   -9398.3378    790.32919    9.2456193    9.2456193    9.2456193    81.172835 
   19900    298.90538   -10508.995            0   -9618.9059   -22381.667    787.28103    9.2337177    9.2337177    9.2337177    105.26518 
   20000    303.06937   -10531.916            0   -9629.4271    794.18708    783.98277     9.220805     9.220805     9.220805    67.139873 
Loop time of 12.4147 on 16 procs for 1000 steps with 1000 atoms

Performance: 6.960 ns/day, 3.449 hours/ns, 80.550 timesteps/s
94.8% CPU use with 16 MPI tasks x no OpenMP threads

MPI task timing breakdown:
Section |  min time  |  avg time  |  max time  |%varavg| %total
---------------------------------------------------------------
Pair    | 1.6223     | 1.7012     | 1.8114     |   4.0 | 13.70
Neigh   | 0.58746    | 0.60405    | 0.64184    |   2.0 |  4.87
Comm    | 0.33163    | 0.45943    | 0.55179    |   9.5 |  3.70
Output  | 6.256      | 6.4693     | 9.6227     |  32.0 | 52.11
Modify  | 0.020158   | 3.1738     | 3.3871     |  45.7 | 25.57
Other   |            | 0.006777   |            |       |  0.05

Nlocal:    62.5 ave 68 max 59 min
Histogram: 2 3 1 4 1 1 0 3 0 1
Nghost:    1861.19 ave 1869 max 1848 min
Histogram: 1 1 0 1 1 4 1 0 2 5
Neighs:    0 ave 0 max 0 min
Histogram: 16 0 0 0 0 0 0 0 0 0
FullNghs:  18821.8 ave 20536 max 17699 min
Histogram: 3 3 1 3 1 1 0 3 0 1

Total # of neighbors = 301148
Ave neighs/atom = 301.148
Neighbor list builds = 1000
Dangerous builds not checked
Setting up Verlet run ...
  Unit style    : real
  Current step  : 20000
  Time step     : 1
Per MPI rank memory allocation (min/avg/max) = 4.577 | 4.578 | 4.579 Mbytes
Step Temp E_pair E_mol TotEng Press Volume Lx Ly Lz S/CPU 
   20000    303.06937   -10531.916            0   -9629.4271    794.18708    783.98277     9.220805     9.220805     9.220805            0 
   20100    295.68934   -10519.865            0   -9639.3524    13138.421    780.65472    9.2077389    9.2077389    9.2077389    91.867757 
   20200    296.58214   -10530.934            0   -9647.7634    19898.855    777.90771     9.196926     9.196926     9.196926      88.2923 
   20300    285.89742   -10505.873            0    -9654.519    13448.696    776.30649    9.1906114    9.1906114    9.1906114    70.726803 
   20400    292.78089   -10532.089            0   -9660.2378    21742.282    775.84911    9.1888061    9.1888061    9.1888061    81.598582 
   20500    296.00636   -10548.128            0   -9666.6719    7307.6786    776.69588    9.1921478    9.1921478    9.1921478    97.286624 
   20600     295.3743   -10548.775            0   -9669.2012   -7039.2509    778.34563    9.1986514    9.1986514    9.1986514    86.236626 
   20700    293.80334    -10545.69            0   -9670.7934   -7704.6016    780.03036    9.2052835    9.2052835    9.2052835     69.06347 
   20800    289.45924   -10532.455            0   -9670.4946   -12519.262    781.37962    9.2105881    9.2105881    9.2105881    77.100273 
   20900    300.05645   -10563.567            0     -9670.05   -11236.139      782.064    9.2132764    9.2132764    9.2132764    66.035261 
   21000    299.49961   -10556.697            0   -9664.8381    8897.2521    782.24273    9.2139781    9.2139781    9.2139781    72.844564 
Loop time of 12.6801 on 16 procs for 1000 steps with 1000 atoms

Performance: 6.814 ns/day, 3.522 hours/ns, 78.864 timesteps/s
94.8% CPU use with 16 MPI tasks x no OpenMP threads

MPI task timing breakdown:
Section |  min time  |  avg time  |  max time  |%varavg| %total
---------------------------------------------------------------
Pair    | 1.6829     | 1.7497     | 1.8173     |   2.7 | 13.80
Neigh   | 0.58831    | 0.60827    | 0.64644    |   2.0 |  4.80
Comm    | 0.38142    | 0.47951    | 0.56614    |   7.2 |  3.78
Output  | 6.3861     | 6.6037     | 9.8153     |  32.3 | 52.08
Modify  | 0.020204   | 3.2321     | 3.4499     |  46.1 | 25.49
Other   |            | 0.006875   |            |       |  0.05

Nlocal:    62.5 ave 68 max 56 min
Histogram: 1 0 2 1 4 1 2 1 3 1
Nghost:    1853.56 ave 1879 max 1833 min
Histogram: 2 1 0 4 5 0 0 1 2 1
Neighs:    0 ave 0 max 0 min
Histogram: 16 0 0 0 0 0 0 0 0 0
FullNghs:  18867.6 ave 20393 max 16705 min
Histogram: 1 0 2 2 1 2 1 2 1 4

Total # of neighbors = 301882
Ave neighs/atom = 301.882
Neighbor list builds = 1000
Dangerous builds not checked
Setting up Verlet run ...
  Unit style    : real
  Current step  : 21000
  Time step     : 1
Per MPI rank memory allocation (min/avg/max) = 4.577 | 4.578 | 4.579 Mbytes
Step Temp E_pair E_mol TotEng Press Volume Lx Ly Lz S/CPU 
   21000    299.49961   -10556.697            0   -9664.8381    8897.2521    782.24273    9.2139781    9.2139781    9.2139781            0 
   21100    289.18588   -10519.477            0   -9658.3306   -1360.7003    782.59916    9.2153774    9.2153774    9.2153774     68.60704 
   21200    296.80373   -10531.499            0    -9647.668   -6781.3044    783.02361    9.2170431    9.2170431    9.2170431    57.468362 
   21300    297.07007   -10514.289            0   -9629.6646    7427.5712     783.5306     9.219032     9.219032     9.219032    67.560838 
   21400    300.13627   -10502.421            0   -9608.6661    2903.3097    784.22668    9.2217612    9.2217612    9.2217612    56.700698 
   21500    295.09161   -10469.958            0   -9591.2259   -3776.6775    784.87999    9.2243212    9.2243212    9.2243212    77.632568 
   21600    302.40432   -10482.136            0   -9581.6277   -2215.4292     785.3038    9.2259812    9.2259812    9.2259812    68.768858 
   21700    294.76538   -10452.688            0   -9574.9272    6866.3396    785.60731    9.2271696    9.2271696    9.2271696    56.656111 
   21800    301.42976   -10468.934            0   -9571.3272    4761.1201    785.90222    9.2283241    9.2283241    9.2283241    73.302991 
   21900    317.80553   -10516.573            0   -9570.2024    592.34407    786.22022    9.2295686    9.2295686    9.2295686    62.202594 
   22000    303.30733   -10472.294            0   -9569.0967   -4085.0257    786.78005    9.2317587    9.2317587    9.2317587    55.089303 
Loop time of 15.7359 on 16 procs for 1000 steps with 1000 atoms

Performance: 5.491 ns/day, 4.371 hours/ns, 63.549 timesteps/s
94.6% CPU use with 16 MPI tasks x no OpenMP threads

MPI task timing breakdown:
Section |  min time  |  avg time  |  max time  |%varavg| %total
---------------------------------------------------------------
Pair    | 1.6373     | 1.7287     | 1.8873     |   4.5 | 10.99
Neigh   | 0.58087    | 0.60521    | 0.63516    |   1.8 |  3.85
Comm    | 0.29082    | 0.47756    | 0.59303    |  10.2 |  3.03
Output  | 8.4282     | 8.7107     | 12.897     |  36.6 | 55.36
Modify  | 0.020152   | 4.2069     | 4.4893     |  52.7 | 26.73
Other   |            | 0.006824   |            |       |  0.04

Nlocal:    62.5 ave 68 max 56 min
Histogram: 1 1 2 2 1 2 2 0 2 3
Nghost:    1843.25 ave 1861 max 1827 min
Histogram: 2 0 5 1 1 1 2 1 1 2
Neighs:    0 ave 0 max 0 min
Histogram: 16 0 0 0 0 0 0 0 0 0
FullNghs:  18755.8 ave 20417 max 16788 min
Histogram: 1 1 2 2 2 1 2 0 2 3

Total # of neighbors = 300092
Ave neighs/atom = 300.092
Neighbor list builds = 1000
Dangerous builds not checked
Setting up Verlet run ...
  Unit style    : real
  Current step  : 22000
  Time step     : 1
Per MPI rank memory allocation (min/avg/max) = 4.577 | 4.578 | 4.579 Mbytes
Step Temp E_pair E_mol TotEng Press Volume Lx Ly Lz S/CPU 
   22000    303.30733   -10472.294            0   -9569.0967   -4085.0257    786.78005    9.2317587    9.2317587    9.2317587            0 
   22100    300.99749   -10465.182            0   -9568.8628   -18062.314    787.36184    9.2340337    9.2340337    9.2340337    61.366193 
   22200    300.35227   -10465.089            0   -9570.6916   -13457.855    787.80114    9.2357507    9.2357507    9.2357507    55.429231 
   22300    302.66379   -10475.157            0   -9573.8762    15352.598    787.50101    9.2345777    9.2345777    9.2345777    73.239747 
   22400    310.08325   -10502.796            0    -9579.421    4163.0901    787.15175    9.2332123    9.2332123    9.2332123     59.29605 
   22500    298.87303   -10473.734            0   -9583.7411   -6331.3781    786.96907     9.232498     9.232498     9.232498    75.922386 
   22600    304.75387   -10498.037            0   -9590.5317   -3957.4015    786.89411    9.2322048    9.2322048    9.2322048    75.198989 
   22700    302.14663   -10497.246            0   -9597.5047   -8896.7202    786.90614    9.2322519    9.2322519    9.2322519    62.634944 
   22800    298.46413   -10493.596            0   -9604.8207    782.60328    786.67285    9.2313394    9.2313394    9.2313394    66.146797 
   22900    298.42552   -10500.097            0    -9611.437   -11989.197    786.44421     9.230445     9.230445     9.230445    65.217316 
   23000    302.63497   -10518.163            0   -9616.9673   -21028.351    785.72656    9.2276365    9.2276365    9.2276365    64.584079 
Loop time of 15.3225 on 16 procs for 1000 steps with 1000 atoms

Performance: 5.639 ns/day, 4.256 hours/ns, 65.263 timesteps/s
94.6% CPU use with 16 MPI tasks x no OpenMP threads

MPI task timing breakdown:
Section |  min time  |  avg time  |  max time  |%varavg| %total
---------------------------------------------------------------
Pair    | 1.6568     | 1.7123     | 1.7363     |   1.9 | 11.18
Neigh   | 0.58268    | 0.60421    | 0.63031    |   1.4 |  3.94
Comm    | 0.39136    | 0.43994    | 0.51657    |   4.9 |  2.87
Output  | 8.328      | 8.5942     | 12.539     |  34.7 | 56.09
Modify  | 0.020118   | 3.965      | 4.2313     |  51.2 | 25.88
Other   |            | 0.006792   |            |       |  0.04

Nlocal:    62.5 ave 71 max 58 min
Histogram: 6 0 1 4 1 1 1 1 0 1
Nghost:    1858.56 ave 1870 max 1837 min
Histogram: 1 0 0 0 3 2 2 3 2 3
Neighs:    0 ave 0 max 0 min
Histogram: 16 0 0 0 0 0 0 0 0 0
FullNghs:  18779.2 ave 21322 max 17394 min
Histogram: 6 0 1 3 2 1 1 0 1 1

Total # of neighbors = 300468
Ave neighs/atom = 300.468
Neighbor list builds = 1000
Dangerous builds not checked
Setting up Verlet run ...
  Unit style    : real
  Current step  : 23000
  Time step     : 1
Per MPI rank memory allocation (min/avg/max) = 4.577 | 4.578 | 4.579 Mbytes
Step Temp E_pair E_mol TotEng Press Volume Lx Ly Lz S/CPU 
   23000    302.63497   -10518.163            0   -9616.9673   -21028.351    785.72656    9.2276365    9.2276365    9.2276365            0 
   23100    291.54842   -10490.615            0    -9622.434   -9038.6899    784.19833    9.2216501    9.2216501    9.2216501    56.997918 
   23200    296.84431    -10511.94            0   -9627.9884    2793.1809    782.37754    9.2145074    9.2145074    9.2145074    61.484913 
   23300    295.39312   -10510.588            0   -9630.9574    4635.4271    780.31718    9.2064117    9.2064117    9.2064117    73.892062 
   23400    293.28907   -10504.866            0   -9631.5011    24274.472    778.64474    9.1998296    9.1998296    9.1998296    72.589912 
   23500    289.42491   -10493.097            0   -9631.2392    7158.6966    777.62195    9.1957997    9.1957997    9.1957997    55.124873 
   23600    288.93002   -10488.408            0   -9628.0239    8524.4455    776.79529      9.19254      9.19254      9.19254     65.18539 
   23700    300.05508   -10518.552            0    -9625.039    21242.076    776.37511    9.1908822    9.1908822    9.1908822    72.944293 
   23800    291.98427   -10485.775            0   -9616.2961    19296.877    777.02892    9.1934615    9.1934615    9.1934615    60.706405 
   23900    291.00371   -10474.087            0   -9607.5275    3408.4247    778.94909    9.2010281    9.2010281    9.2010281     63.20786 
   24000     286.9911   -10447.957            0   -9593.3469    7572.0232    781.61341    9.2115066    9.2115066    9.2115066    50.704533 
Loop time of 16.0324 on 16 procs for 1000 steps with 1000 atoms

Performance: 5.389 ns/day, 4.453 hours/ns, 62.374 timesteps/s
94.6% CPU use with 16 MPI tasks x no OpenMP threads

MPI task timing breakdown:
Section |  min time  |  avg time  |  max time  |%varavg| %total
---------------------------------------------------------------
Pair    | 1.6862     | 1.7511     | 1.8064     |   2.3 | 10.92
Neigh   | 0.59222    | 0.60864    | 0.64052    |   1.7 |  3.80
Comm    | 0.42706    | 0.4864     | 0.56225    |   5.8 |  3.03
Output  | 9.1527     | 9.4063     | 13.159     |  31.6 | 58.67
Modify  | 0.020033   | 3.7731     | 4.0268     |  49.9 | 23.53
Other   |            | 0.006872   |            |       |  0.04

Nlocal:    62.5 ave 68 max 57 min
Histogram: 1 0 2 2 4 2 1 3 0 1
Nghost:    1861.5 ave 1882 max 1843 min
Histogram: 2 0 3 2 2 1 2 3 0 1
Neighs:    0 ave 0 max 0 min
Histogram: 16 0 0 0 0 0 0 0 0 0
FullNghs:  18904.5 ave 20827 max 17242 min
Histogram: 1 0 3 2 4 2 2 1 0 1

Total # of neighbors = 302472
Ave neighs/atom = 302.472
Neighbor list builds = 1000
Dangerous builds not checked
Setting up Verlet run ...
  Unit style    : real
  Current step  : 24000
  Time step     : 1
Per MPI rank memory allocation (min/avg/max) = 4.577 | 4.578 | 4.579 Mbytes
Step Temp E_pair E_mol TotEng Press Volume Lx Ly Lz S/CPU 
   24000     286.9911   -10447.957            0   -9593.3469    7572.0232    781.61341    9.2115066    9.2115066    9.2115066            0 
   24100     308.1845   -10497.158            0   -9579.4375    5084.4612     784.7355    9.2237552    9.2237552    9.2237552    67.608573 
   24200    296.13698   -10446.707            0    -9564.862   -2249.1865     788.0953    9.2369001    9.2369001    9.2369001    50.593922 
   24300    296.79416   -10438.047            0   -9554.2447   -4592.1182    791.18442     9.248953     9.248953     9.248953    64.491604 
   24400    317.54261   -10495.479            0   -9549.8914   -14852.971       793.72    9.2588229    9.2588229    9.2588229    59.813876 
   24500    315.82576   -10486.588            0   -9546.1123   -14111.106    795.70849    9.2665484    9.2665484    9.2665484    68.018635 
   24600    301.95999   -10443.525            0   -9544.3395   -7396.4081    796.49671    9.2696071    9.2696071    9.2696071    64.785387 
   24700    308.09337    -10463.73            0   -9546.2807    506.96629    796.10061    9.2680703    9.2680703    9.2680703     59.97368 
   24800    310.85426   -10473.591            0   -9547.9198    6070.4327    795.40386    9.2653657    9.2653657    9.2653657    68.959347 
   24900    304.63555   -10459.319            0    -9552.166   -5914.5324    794.27557    9.2609826    9.2609826    9.2609826    67.276207 
   25000    307.55461   -10474.817            0   -9558.9716    3549.9441    792.43406      9.25382      9.25382      9.25382    52.681809 
Loop time of 16.1939 on 16 procs for 1000 steps with 1000 atoms

Performance: 5.335 ns/day, 4.498 hours/ns, 61.751 timesteps/s
94.5% CPU use with 16 MPI tasks x no OpenMP threads

MPI task timing breakdown:
Section |  min time  |  avg time  |  max time  |%varavg| %total
---------------------------------------------------------------
Pair    | 1.6277     | 1.6897     | 1.7267     |   2.0 | 10.43
Neigh   | 0.58971    | 0.6041     | 0.63372    |   1.4 |  3.73
Comm    | 0.43024    | 0.48244    | 0.55914    |   4.7 |  2.98
Output  | 9.0956     | 9.3673     | 13.391     |  33.9 | 57.84
Modify  | 0.02006    | 4.0436     | 4.3154     |  51.7 | 24.97
Other   |            | 0.006792   |            |       |  0.04

Nlocal:    62.5 ave 70 max 55 min
Histogram: 2 1 1 1 2 1 5 1 0 2
Nghost:    1856.88 ave 1877 max 1840 min
Histogram: 1 1 4 2 2 1 0 4 0 1
Neighs:    0 ave 0 max 0 min
Histogram: 16 0 0 0 0 0 0 0 0 0
FullNghs:  18623.2 ave 20861 max 16293 min
Histogram: 2 1 1 1 0 4 4 1 0 2

Total # of neighbors = 297972
Ave neighs/atom = 297.972
Neighbor list builds = 1000
Dangerous builds not checked
Setting up Verlet run ...
  Unit style    : real
  Current step  : 25000
  Time step     : 1
Per MPI rank memory allocation (min/avg/max) = 4.577 | 4.578 | 4.579 Mbytes
Step Temp E_pair E_mol TotEng Press Volume Lx Ly Lz S/CPU 
   25000    307.55461   -10474.817            0   -9558.9716    3549.9441    792.43406      9.25382      9.25382      9.25382            0 
   25100    302.13238   -10465.615            0   -9565.9159   -1749.0942    790.41321    9.2459469    9.2459469    9.2459469     67.41162 
   25200    302.44616   -10474.404            0   -9573.7707   -46.543367    788.65705    9.2390942    9.2390942    9.2390942    57.519194 
   25300    299.11001   -10472.268            0   -9581.5697   -1863.0619    787.02517    9.2327173    9.2327173    9.2327173    43.963888 
   25400    307.73853   -10504.775            0   -9588.3825   -15162.334    785.08621     9.225129     9.225129     9.225129    61.241716 
   25500    300.16057   -10488.192            0   -9594.3648    10484.872    782.83906    9.2163189    9.2163189    9.2163189     61.31584 
   25600    299.23947   -10490.936            0   -9599.8519    5646.5523    780.73037    9.2080363    9.2080363    9.2080363    71.611735 
   25700    305.70321   -10516.638            0   -9606.3063    -1973.202    778.75013    9.2002447    9.2002447    9.2002447    50.158508 
   25800    303.55822   -10515.248            0   -9611.3033    9608.0454    777.04997    9.1935445    9.1935445    9.1935445    58.247746 
   25900    308.02498   -10532.261            0    -9615.015    6161.1902     776.2659    9.1904513    9.1904513    9.1904513    87.242194 
   26000    302.23007   -10519.526            0   -9619.5362    68.084979    776.02801    9.1895124    9.1895124    9.1895124    74.211659 
Loop time of 16.361 on 16 procs for 1000 steps with 1000 atoms

Performance: 5.281 ns/day, 4.545 hours/ns, 61.121 timesteps/s
94.6% CPU use with 16 MPI tasks x no OpenMP threads

MPI task timing breakdown:
Section |  min time  |  avg time  |  max time  |%varavg| %total
---------------------------------------------------------------
Pair    | 1.6775     | 1.7334     | 1.8074     |   2.2 | 10.59
Neigh   | 0.59355    | 0.60647    | 0.63143    |   1.4 |  3.71
Comm    | 0.38346    | 0.46457    | 0.53291    |   5.2 |  2.84
Output  | 8.5141     | 8.8307     | 13.529     |  40.8 | 53.97
Modify  | 0.020056   | 4.719      | 5.0357     |  55.9 | 28.84
Other   |            | 0.006826   |            |       |  0.04

Nlocal:    62.5 ave 67 max 55 min
Histogram: 1 0 1 1 1 2 0 6 3 1
Nghost:    1869.31 ave 1894 max 1843 min
Histogram: 2 0 0 6 0 2 1 2 1 2
Neighs:    0 ave 0 max 0 min
Histogram: 16 0 0 0 0 0 0 0 0 0
FullNghs:  19002.8 ave 20409 max 16699 min
Histogram: 1 0 1 1 3 0 1 5 3 1

Total # of neighbors = 304044
Ave neighs/atom = 304.044
Neighbor list builds = 1000
Dangerous builds not checked
Setting up Verlet run ...
  Unit style    : real
  Current step  : 26000
  Time step     : 1
Per MPI rank memory allocation (min/avg/max) = 4.577 | 4.578 | 4.579 Mbytes
Step Temp E_pair E_mol TotEng Press Volume Lx Ly Lz S/CPU 
   26000    302.23007   -10519.526            0   -9619.5362    68.084979    776.02801    9.1895124    9.1895124    9.1895124            0 
   26100    298.38505   -10509.324            0   -9620.7841    829.69691     776.2041    9.1902073    9.1902073    9.1902073    101.79851 
   26200    296.48923   -10506.343            0   -9623.4487    3377.2576    776.38443     9.190919     9.190919     9.190919    89.738219 
   26300    303.55668    -10528.25            0   -9624.3097    4103.9282    776.50437    9.1913923    9.1913923    9.1913923    82.539466 
   26400    302.68962   -10526.761            0   -9625.4035    12252.914    776.96846    9.1932231    9.1932231    9.1932231    87.569036 
   26500    305.27147   -10536.619            0   -9627.5723   -7238.2897    778.18202    9.1980069    9.1980069    9.1980069    86.823923 
   26600    303.96603   -10532.978            0    -9627.819    391.84416    779.93919    9.2049249    9.2049249    9.2049249    66.245538 
   26700    288.26738   -10484.872            0   -9626.4612    16941.094    782.23661    9.2139541    9.2139541    9.2139541    87.521094 
   26800    293.06038   -10498.688            0    -9626.004   -6285.0293    784.75368    9.2238264    9.2238264    9.2238264    89.705868 
   26900    305.58864   -10535.151            0   -9625.1606   -16936.153    786.82471    9.2319334    9.2319334    9.2319334    67.490543 
   27000    297.64471   -10508.719            0   -9622.3836   -1569.1561    788.12335    9.2370097    9.2370097    9.2370097    93.590653 
Loop time of 11.919 on 16 procs for 1000 steps with 1000 atoms

Performance: 7.249 ns/day, 3.311 hours/ns, 83.900 timesteps/s
94.9% CPU use with 16 MPI tasks x no OpenMP threads

MPI task timing breakdown:
Section |  min time  |  avg time  |  max time  |%varavg| %total
---------------------------------------------------------------
Pair    | 1.6521     | 1.748      | 1.8461     |   3.8 | 14.67
Neigh   | 0.58503    | 0.60779    | 0.63731    |   1.9 |  5.10
Comm    | 0.38119    | 0.49805    | 0.61325    |   8.7 |  4.18
Output  | 5.8068     | 6.0117     | 9.0377     |  31.9 | 50.44
Modify  | 0.020276   | 3.0466     | 3.2516     |  44.8 | 25.56
Other   |            | 0.006857   |            |       |  0.06

Nlocal:    62.5 ave 67 max 58 min
Histogram: 1 1 1 4 2 2 1 1 1 2
Nghost:    1863.75 ave 1881 max 1844 min
Histogram: 1 2 0 1 5 1 0 1 4 1
Neighs:    0 ave 0 max 0 min
Histogram: 16 0 0 0 0 0 0 0 0 0
FullNghs:  18738.2 ave 20113 max 17238 min
Histogram: 1 1 0 5 2 1 2 0 1 3

Total # of neighbors = 299812
Ave neighs/atom = 299.812
Neighbor list builds = 1000
Dangerous builds not checked
Setting up Verlet run ...
  Unit style    : real
  Current step  : 27000
  Time step     : 1
Per MPI rank memory allocation (min/avg/max) = 4.577 | 4.578 | 4.579 Mbytes
Step Temp E_pair E_mol TotEng Press Volume Lx Ly Lz S/CPU 
   27000    297.64471   -10508.719            0   -9622.3836   -1569.1561    788.12335    9.2370097    9.2370097    9.2370097            0 
   27100    292.25215   -10489.509            0   -9619.2317   -19335.398    788.81859     9.239725     9.239725     9.239725    103.71842 
   27200    292.58329   -10485.658            0   -9614.3953   -6617.5886    788.45261    9.2382958    9.2382958    9.2382958    65.013223 
   27300    290.10368   -10472.418            0    -9608.539   -14388.547    787.09187    9.2329782    9.2329782    9.2329782    80.426806 
   27400    306.94985   -10515.014            0   -9600.9698    500.88774    785.24499    9.2257509    9.2257509    9.2257509    73.228942 
   27500    299.08268   -10480.361            0   -9589.7438   -12021.179    783.41082    9.2185622    9.2185622    9.2185622    71.200583 
   27600    313.14239   -10512.025            0   -9579.5404    15993.739    781.58287    9.2113866    9.2113866    9.2113866    86.986063 
   27700    300.68201   -10458.412            0    -9563.032    16334.145    780.71056    9.2079585    9.2079585    9.2079585    96.019716 
   27800    304.28141   -10454.077            0   -9547.9788    11554.939    780.89715     9.208692     9.208692     9.208692    89.629794 
   27900    302.37737    -10434.96            0   -9534.5314    9040.8852    782.08933    9.2133758    9.2133758    9.2133758     67.35139 
   28000    309.30954   -10444.625            0   -9523.5536    2275.5652     784.1299    9.2213818    9.2213818    9.2213818    78.715355 
Loop time of 12.5777 on 16 procs for 1000 steps with 1000 atoms

[...]
  197700    304.90885   -11426.383            0   -10518.417    5718.1636    724.97798    8.9834179    8.9834179    8.9834179    74.173256 
  197800    304.23772   -11423.591            0   -10517.623    21607.871    723.98016    8.9792946    8.9792946    8.9792946    52.253422 
  197900    300.37115   -11412.273            0   -10517.819    7073.3746    723.79436    8.9785264    8.9785264    8.9785264    62.688391 
  198000    311.64664    -11447.68            0   -10519.649    13508.839     724.2169    8.9802732    8.9802732    8.9802732    75.143944 
  198100    291.30274   -11387.686            0   -10520.236     6649.618    725.31793    8.9848219    8.9848219    8.9848219    53.931409 
  198200    296.00103   -11403.664            0   -10522.224     -10699.2    726.78391     8.990871     8.990871     8.990871    79.733633 
  198300    304.00105   -11430.587            0   -10525.324   -7248.1653     728.0017    8.9958899    8.9958899    8.9958899    60.100996 
  198400    304.81843   -11433.432            0   -10525.734    3148.1669    728.99963    8.9999985    8.9999985    8.9999985    64.655098 
  198500    300.09482    -11420.79            0   -10527.159   -2726.9123    729.68462    9.0028165    9.0028165    9.0028165    77.510122 
  198600    295.44973   -11407.245            0   -10527.446   -9406.2211    729.78418    9.0032259    9.0032259    9.0032259     61.26466 
  198700    299.43544   -11419.333            0   -10527.666   -14128.902    729.17389    9.0007155    9.0007155    9.0007155     56.87985 
  198800    306.75362   -11442.254            0   -10528.794   -4324.8526    728.04045    8.9960495    8.9960495    8.9960495    72.948761 
  198900    305.83343   -11441.231            0   -10530.512   -6048.2771    726.82123    8.9910249    8.9910249    8.9910249    67.952841 
  199000    298.85213   -11419.169            0   -10529.239   -2319.1382    725.73657    8.9865502    8.9865502    8.9865502    72.878994 
  199100     302.8543   -11433.492            0   -10531.644    21398.961    724.80538     8.982705     8.982705     8.982705     69.97608 
  199200    298.34555   -11420.314            0   -10531.892   -6605.0046    724.34904    8.9808194    8.9808194    8.9808194    73.852178 
  199300    304.19676   -11439.983            0   -10534.137    3838.8923    724.22115    8.9802908    8.9802908    8.9802908    61.739252 
  199400    298.21109   -11422.426            0   -10534.404    21909.597    724.73728    8.9824236    8.9824236    8.9824236    53.472611 
  199500    289.43559   -11397.116            0   -10535.226    4434.2019    726.22433     8.988563     8.988563     8.988563    63.861232 
  199600    296.37943    -11418.95            0   -10536.382   -2250.2376     728.1818    8.9966316    8.9966316    8.9966316    66.996358 
  199700    292.73431   -11407.457            0   -10535.744    -22844.23    730.27176    9.0052305    9.0052305    9.0052305    50.789521 
  199800    295.71705   -11415.787            0   -10535.192   -17664.659    731.45864    9.0101065    9.0101065    9.0101065    59.671681 
  199900    297.97471   -11422.728            0    -10535.41   -23961.104    731.41842    9.0099414    9.0099414    9.0099414    49.389244 
  200000    297.88114   -11421.744            0   -10534.705    -6305.653    730.21253    9.0049871    9.0049871    9.0049871    62.004234 
  200100     304.4573   -11439.971            0   -10533.349   -3322.9665    728.21616    8.9967732    8.9967732    8.9967732    73.074495 
  200200    305.81761   -11441.419            0   -10530.747    16129.995    726.13783    8.9882061    8.9882061    8.9882061    69.149784 
  200300     307.9281   -11446.405            0   -10529.448    -1774.616    724.25785    8.9804425    8.9804425    8.9804425    74.314778 
  200400    303.25041    -11429.19            0   -10526.162     12106.88    722.69447    8.9739761    8.9739761    8.9739761    61.323171 
  200500    302.33101   -11423.475            0   -10523.185    17506.782    722.08314     8.971445     8.971445     8.971445    53.771524 
  200600    303.06465   -11425.806            0   -10523.331    16766.297    722.76099    8.9742515    8.9742515    8.9742515     64.25523 
  200700    295.20247   -11398.197            0   -10519.134    14741.224    724.77609     8.982584     8.982584     8.982584    52.844716 
  200800    302.60633    -11420.12            0    -10519.01    -6010.338    727.54329    8.9940013    8.9940013    8.9940013    69.514446 
  200900    313.83712    -11452.28            0   -10517.727   -19904.776    730.30408    9.0053634    9.0053634    9.0053634    94.631905 
  201000     290.8159   -11379.442            0   -10513.441    -23029.32    732.38257    9.0138986    9.0138986    9.0138986    75.285572 
  201100    298.12425   -11397.602            0   -10509.839   -29476.714    733.10266    9.0168518    9.0168518    9.0168518    83.373174 
  201200    296.11537   -11386.557            0   -10504.776   -11621.631    732.37286    9.0138588    9.0138588    9.0138588    64.582489 
  201300     306.5189   -11412.415            0   -10499.654   -1669.8314    730.33939    9.0055085    9.0055085    9.0055085    78.854152 
  201400    311.10793   -11417.683            0   -10491.256    4530.0958    727.47749    8.9937302    8.9937302    8.9937302    78.718904 
  201500    309.13817   -11400.815            0   -10480.255    32133.514    724.55096    8.9816538    8.9816538    8.9816538    61.579847 
  201600    306.86105   -11383.193            0   -10469.413    20640.396    722.58936     8.973541     8.973541     8.973541    70.209369 
  201700    312.96577   -11393.583            0   -10461.624    27934.435    722.02283    8.9711953    8.9711953    8.9711953    68.814828 
  201800    317.95007   -11402.966            0   -10456.165    25638.936    723.04464    8.9754253    8.9754253    8.9754253    59.934061 
  201900    302.56415   -11353.323            0   -10452.338    14159.778    725.62211    8.9860777    8.9860777    8.9860777    69.506876 
  202000     311.1372   -11379.733            0    -10453.22   -2311.9905    729.12497    9.0005142    9.0005142    9.0005142    80.705358 
  202100    302.31327   -11353.922            0   -10453.684   -10292.572    732.84176     9.015782     9.015782     9.015782    60.295258 
  202200    307.25825   -11372.301            0   -10457.338   -31255.956    735.99115    9.0286787    9.0286787    9.0286787    64.692995 
  202300     298.9071   -11353.018            0   -10462.924   -31621.198     737.4962    9.0348288    9.0348288    9.0348288     75.79883 
  202400     304.8543   -11381.838            0   -10474.034    -29473.54    736.93209    9.0325247    9.0325247    9.0325247    58.624469 
  202500     296.3941   -11367.734            0   -10485.123   -20466.457    734.32948    9.0218788    9.0218788    9.0218788    65.916565 
  202600     299.4608   -11390.821            0   -10499.078   -6600.2325    730.23249    9.0050691    9.0050691    9.0050691    97.952109 
  202700       303.98   -11418.163            0   -10512.962    16434.049    725.69799    8.9863909    8.9863909    8.9863909    72.959899 
  202800    301.53956    -11422.82            0   -10524.887    22756.257     721.8561    8.9705047    8.9705047    8.9705047    62.889419 
  202900     294.8173    -11410.89            0   -10532.975    34654.716    719.41996     8.960402     8.960402     8.960402    52.010639 
  203000    303.37937   -11443.005            0   -10539.593    41502.548    718.82645    8.9579373    8.9579373    8.9579373    63.229096 
  203100    304.82203   -11453.533            0   -10545.825    28145.856    720.18256     8.963567     8.963567     8.963567    54.632264 
  203200    295.29398   -11429.188            0   -10549.853    3216.8725    723.16412    8.9759196    8.9759196    8.9759196    68.266069 
  203300    297.44129   -11439.225            0   -10553.496    72.722894    726.96589    8.9916214    8.9916214    8.9916214    82.565359 
  203400    294.67931   -11431.857            0   -10554.353    -25454.39    730.68087    9.0069118    9.0069118    9.0069118    88.245412 
  203500    305.34173   -11463.539            0   -10554.284   -21597.401     733.2333    9.0173874    9.0173874    9.0173874    65.881073 
  203600    290.85435    -11418.44            0   -10552.325   -32325.875    734.13787     9.021094     9.021094     9.021094    77.363876 
  203700    300.78788   -11448.286            0   -10552.591   -15667.189    733.23086    9.0173774    9.0173774    9.0173774    75.277147 
  203800    286.78767   -11403.191            0   -10549.186   -11503.961    731.09523    9.0086141    9.0086141    9.0086141    61.483905 
  203900    297.58698   -11432.017            0   -10545.854    3900.3096    728.37261    8.9974174    8.9974174    8.9974174    86.521182 
  204000    298.70381   -11432.475            0   -10542.986    2527.1001    725.56249    8.9858316    8.9858316    8.9858316    89.553415 
  204100    296.08691   -11419.157            0   -10537.461    15672.441    723.16409    8.9759195    8.9759195    8.9759195    64.446336 
  204200     302.3067   -11433.886            0   -10533.668    28372.584    721.82289    8.9703671    8.9703671    8.9703671    69.020469 
  204300    310.05861   -11452.331            0   -10529.029      17218.9    721.99051    8.9710614    8.9710614    8.9710614    67.858036 
  204400    306.00268   -11435.154            0    -10523.93    28459.754    723.62766    8.9778371    8.9778371    8.9778371    58.222604 
  204500    306.46427   -11431.966            0   -10519.368     9585.354    726.38624    8.9892309    8.9892309    8.9892309    83.091755 
  204600    298.26146   -11400.415            0   -10512.243    -6768.628    729.33146    9.0013638    9.0013638    9.0013638    64.757841 
  204700    299.38564   -11395.101            0   -10503.582   -12145.488    731.80586    9.0115319    9.0115319    9.0115319    67.964238 
  204800    304.16946   -11398.421            0   -10492.656   -30261.612    733.15384    9.0170616    9.0170616    9.0170616    70.849952 
  204900     303.0486   -11383.355            0   -10480.928   -6078.0355    733.05108    9.0166403    9.0166403    9.0166403    65.846158 
  205000    309.32044   -11391.125            0   -10470.022   -23305.501    731.82881    9.0116262    9.0116262    9.0116262    51.729024 
  205100    314.21906   -11396.399            0   -10460.708    -7732.228    729.68076    9.0028006    9.0028006    9.0028006    94.291064 
  205200    315.68135   -11391.485            0    -10451.44    5481.6376    727.13697    8.9923267    8.9923267    8.9923267     66.19718 
  205300    315.60107   -11386.868            0   -10447.062    10106.129    724.99904    8.9835049    8.9835049    8.9835049    68.914195 
  205400    311.31579   -11371.393            0   -10444.347    29613.284    723.79883    8.9785449    8.9785449    8.9785449    63.149567 
  205500    316.20076   -11386.886            0   -10445.294    27927.166    724.00191    8.9793845    8.9793845    8.9793845     50.38768 
  205600    313.91194   -11382.342            0   -10447.566    5613.5261    725.69413     8.986375     8.986375     8.986375    60.111045 
  205700    304.26162   -11360.509            0    -10454.47    12218.989    728.38483    8.9974677    8.9974677    8.9974677     56.36134 
  205800    300.46298   -11358.256            0   -10463.529   -13793.641    731.19485    9.0090232    9.0090232    9.0090232    70.502309 
  205900    294.97436   -11350.973            0    -10472.59   -880.70729    733.19856     9.017245     9.017245     9.017245    85.311925 
  206000    305.08835   -11394.033            0   -10485.532   -24408.191    734.21748    9.0214201    9.0214201    9.0214201     64.06741 
  206100    300.92629   -11395.496            0   -10499.389   -26224.356     733.7742    9.0196042    9.0196042    9.0196042    83.751244 
  206200    302.56001   -11411.949            0   -10510.977   -13358.414    731.81352    9.0115634    9.0115634    9.0115634    82.712476 
  206300    303.70518   -11424.712            0    -10520.33     -2028.94    728.94011    8.9997535    8.9997535    8.9997535    70.280033 
  206400    301.45267   -11423.314            0   -10525.639    16585.762    725.88535    8.9871642    8.9871642    8.9871642    84.934376 
  206500    299.04282   -11418.315            0   -10527.816    19622.303    723.70504    8.9781571    8.9781571    8.9781571    76.497262 
  206600    291.47465   -11397.962            0       -10530    20579.597    722.68583    8.9739404    8.9739404    8.9739404    63.351913 
  206700    301.09633   -11429.743            0   -10533.129     19153.74    722.84134     8.974584     8.974584     8.974584    87.698063 
  206800    302.72438       -11436            0   -10534.538   -3906.8939    723.97257    8.9792632    8.9792632    8.9792632    89.409066 
  206900    303.89084   -11442.108            0   -10537.173     6523.179    725.80512    8.9868331    8.9868331    8.9868331    69.285174 
  207000    303.21747   -11441.076            0   -10538.146   -8060.8823    727.89162    8.9954365    8.9954365    8.9954365    65.197438 
  207100    294.92228   -11415.339            0   -10537.111   -9383.5118    729.79554    9.0032727    9.0032727    9.0032727    73.223791 
  207200    294.86465   -11413.933            0   -10535.876   -17058.561    730.90568    9.0078355    9.0078355    9.0078355    64.572369 
  207300    295.51296   -11412.001            0   -10532.014   -5064.7647    730.86589     9.007672     9.007672     9.007672    66.855895 
  207400    299.44426   -11420.429            0   -10528.735   -8586.6317    730.11039    9.0045672    9.0045672    9.0045672    75.518931 
  207500     285.8586   -11375.374            0   -10524.136    6673.4873    728.65669     8.998587     8.998587     8.998587    65.806704 
  207600    291.32429   -11385.611            0   -10518.097    16614.992    727.06847    8.9920443    8.9920443    8.9920443    72.734145 
  207700    296.97159   -11395.864            0   -10511.534    5513.2179    725.99941    8.9876349    8.9876349    8.9876349    53.180616 
  207800     294.2811   -11380.472            0   -10504.153    11168.689    725.51717    8.9856445    8.9856445    8.9856445     48.85811 
  207900    301.30198   -11393.963            0   -10496.737    9366.1059    725.68336    8.9863305    8.9863305    8.9863305    62.117296 
  208000    304.06271    -11395.99            0   -10490.543   -8871.7997    726.31008    8.9889167    8.9889167    8.9889167    53.251759 
  208100    311.26173   -11410.686            0   -10483.801    13576.604    727.32492    8.9931014    8.9931014    8.9931014    54.147268 
  208200    304.75891   -11385.371            0   -10477.851   -9092.0134    728.66368    8.9986157    8.9986157    8.9986157    56.949295 
  208300    304.17617   -11379.532            0   -10473.747   -2381.5399    729.88989    9.0036606    9.0036606    9.0036606    90.611609 
  208400    312.50835   -11402.491            0   -10471.894   -17691.623    730.49461    9.0061465    9.0061465    9.0061465    85.466369 
  208500    308.73285   -11388.435            0   -10469.081   -13209.702    730.21542     9.004999     9.004999     9.004999     72.12528 
  208600    307.74993    -11385.75            0   -10469.323   -2863.9281    729.04367    9.0001797    9.0001797    9.0001797    65.690828 
  208700    309.83652   -11396.523            0   -10473.883    6440.7772    727.72164    8.9947362    8.9947362    8.9947362    86.868951 
  208800    309.06994    -11400.01            0   -10479.652    4968.4592    726.34696    8.9890689    8.9890689    8.9890689    63.010862 
  208900     313.0701   -11423.256            0   -10490.986    8880.0804    725.32502    8.9848511    8.9848511    8.9848511    87.753991 
  209000    305.24562   -11415.187            0   -10506.218    18107.971    724.72361    8.9823672    8.9823672    8.9823672    84.856957 
  209100    299.81479   -11416.363            0   -10523.565     16606.63    724.76303      8.98253      8.98253      8.98253    58.116367 
  209200    298.86308   -11427.821            0   -10537.858   -1771.5213    725.44093    8.9853297    8.9853297    8.9853297    79.951089 
  209300    298.20972   -11437.882            0   -10549.864    991.24663    726.31381    8.9889321    8.9889321    8.9889321    64.344831 
  209400    302.28695    -11457.34            0   -10557.181   -7280.9658    726.98039    8.9916812    8.9916812    8.9916812    61.828891 
  209500    296.98297   -11447.286            0   -10562.921   -13399.214    727.30581    8.9930226    8.9930226    8.9930226    92.844182 
  209600      297.824   -11454.041            0   -10567.172    5754.1357    727.16423     8.992439     8.992439     8.992439    95.976721 
  209700    291.71739   -11437.622            0   -10568.938   -2271.9575    726.99841    8.9917555    8.9917555    8.9917555    61.819399 
  209800     284.6962   -11417.535            0   -10569.758   -8796.4192    726.74826     8.990724     8.990724     8.990724     68.50313 
  209900    295.82466   -11451.527            0   -10570.612   -5807.3203    726.44054    8.9894549    8.9894549    8.9894549    72.511975 
  210000    288.94232   -11429.249            0   -10568.828    4997.7831    726.24608    8.9886527    8.9886527    8.9886527    59.602842 
  210100    301.89748   -11466.764            0   -10567.764   -286.02866    726.17282    8.9883504    8.9883504    8.9883504    66.171094 
  210200      309.639   -11487.424            0   -10565.372    22405.181    726.03804    8.9877943    8.9877943    8.9877943    61.562395 
  210300    293.61215   -11432.917            0    -10558.59   -188.02297     726.2157    8.9885273    8.9885273    8.9885273    62.105967 
  210400    302.27256   -11453.668            0   -10553.552    4629.6288    726.59392    8.9900875    8.9900875    8.9900875    56.125586 
  210500    309.64015   -11467.406            0    -10545.35   -19555.906    727.26519    8.9928552    8.9928552    8.9928552    61.416385 
  210600    314.76097   -11472.452            0   -10535.148   -10779.504     727.6507    8.9944439    8.9944439    8.9944439     64.35242 
  210700    297.60525   -11410.713            0   -10524.496    15163.084    727.94243    8.9956457    8.9956457    8.9956457    60.244447 
  210800    299.75396    -11406.25            0   -10513.634   -7154.6618    728.26225     8.996963     8.996963     8.996963    70.783261 
  210900    305.01664   -11413.673            0   -10505.385   -10693.752    728.34858    8.9973185    8.9973185    8.9973185     55.78634 
  211000    304.92753   -11405.854            0   -10497.832    760.22429    728.08878    8.9962486    8.9962486    8.9962486    55.399068 
Loop time of 1554.47 on 16 procs for 100000 steps with 1000 atoms

Performance: 5.558 ns/day, 4.318 hours/ns, 64.331 timesteps/s
94.6% CPU use with 16 MPI tasks x no OpenMP threads

MPI task timing breakdown:
Section |  min time  |  avg time  |  max time  |%varavg| %total
---------------------------------------------------------------
Pair    | 164.71     | 178.39     | 190.58     |  62.5 | 11.48
Neigh   | 59.327     | 62.907     | 69.401     |  34.3 |  4.05
Comm    | 34.504     | 47.399     | 64.5       | 150.7 |  3.05
Output  | 847.73     | 873.98     | 1263       | 339.8 | 56.22
Modify  | 1.9953     | 391.09     | 417.35     | 508.0 | 25.16
Other   |            | 0.7051     |            |       |  0.05

Nlocal:    62.5 ave 69 max 56 min
Histogram: 2 1 2 3 0 1 2 1 0 4
Nghost:    1954.44 ave 1976 max 1933 min
Histogram: 1 1 0 2 4 3 2 2 0 1
Neighs:    0 ave 0 max 0 min
Histogram: 16 0 0 0 0 0 0 0 0 0
FullNghs:  20194.4 ave 22427 max 17921 min
Histogram: 2 1 2 3 0 1 2 1 1 3

Total # of neighbors = 323110
Ave neighs/atom = 323.11
Neighbor list builds = 100000
Dangerous builds not checked
Total wall time: 0:53:43
