LAMMPS (16 Mar 2018)
Reading data file ...
  orthogonal box = (-4.72813 -4.72813 -4.72813) to (4.72813 4.72813 4.72813)
  2 by 2 by 4 MPI processor grid
  reading atoms ...
  1000 atoms
Reading potential file /home/fs01/ajm529/lammps-16Mar18/potentials/sw_potentials/AG/eps2.23.sw with DATE: 2008-01-29
Neighbor list info ...
  update every 1 steps, delay 0 steps, check no
  max neighbors/atom: 2000, page size: 100000
  master list distance cutoff = 3.836
  ghost atom cutoff = 3.836
  binsize = 1.918, bins = 5 5 5
  1 neighbor lists, perpetual/occasional/extra = 1 0 0
  (1) pair sw, perpetual
      attributes: full, newton on
      pair build: full/bin/atomonly
      stencil: full/bin/3d
      bin: standard
Setting up Verlet run ...
  Unit style    : real
  Current step  : 0
  Time step     : 1
Per MPI rank memory allocation (min/avg/max) = 3.517 | 3.519 | 3.52 Mbytes
Step Temp E_pair E_mol TotEng Press Volume Lx Ly Lz S/CPU 
       0          300   -10093.903            0   -9200.5544   -33921.818    845.58812    9.4562648    9.4562648    9.4562648            0 
     100    319.96201   -10159.116            0   -9206.3235   -42308.228    843.75827    9.4494387    9.4494387    9.4494387    65.212277 
     200    326.04215   -10190.531            0   -9219.6331   -32280.364    838.51111      9.42981      9.42981      9.42981     73.16882 
     300    328.96236   -10220.522            0   -9240.9278   -15896.653    830.52303      9.39977      9.39977      9.39977    76.800589 
     400    321.58677    -10221.07            0   -9263.4393   -28515.144    821.38118    9.3651539    9.3651539    9.3651539    61.396108 
     500    330.87564   -10269.288            0   -9283.9969   -22705.449    811.69782     9.328206     9.328206     9.328206    73.076002 
     600    321.50048   -10258.054            0   -9300.6805    -2668.836    802.16057    9.2915272    9.2915272    9.2915272    86.464628 
     700    332.55422   -10308.091            0   -9317.8011    1060.0386    793.69701    9.2587335    9.2587335    9.2587335    62.739635 
     800    339.35772   -10346.022            0   -9335.4728    21268.922    786.94668    9.2324104    9.2324104    9.2324104    61.585887 
     900    322.66458    -10314.26            0     -9353.42    26021.146    782.64389     9.215553     9.215553     9.215553    66.078673 
    1000    328.51585   -10351.005            0   -9372.7406    26804.295    780.88209    9.2086328    9.2086328    9.2086328    75.151879 
Loop time of 14.4176 on 16 procs for 1000 steps with 1000 atoms

Performance: 5.993 ns/day, 4.005 hours/ns, 69.360 timesteps/s
94.8% CPU use with 16 MPI tasks x no OpenMP threads

MPI task timing breakdown:
Section |  min time  |  avg time  |  max time  |%varavg| %total
---------------------------------------------------------------
Pair    | 1.8017     | 1.8966     | 2.0408     |   4.1 | 13.15
Neigh   | 0.76612    | 0.78501    | 0.81708    |   1.5 |  5.44
Comm    | 0.66564    | 0.84205    | 0.94696    |   7.4 |  5.84
Output  | 7.5637     | 7.7719     | 10.838     |  28.4 | 53.91
Modify  | 0.046498   | 3.113      | 3.3218     |  44.9 | 21.59
Other   |            | 0.009105   |            |       |  0.06

Nlocal:    62.5 ave 69 max 55 min
Histogram: 2 0 2 1 1 2 2 3 1 2
Nghost:    1865.12 ave 1876 max 1854 min
Histogram: 2 2 0 3 2 0 1 3 1 2
Neighs:    0 ave 0 max 0 min
Histogram: 16 0 0 0 0 0 0 0 0 0
FullNghs:  18895.1 ave 20843 max 16554 min
Histogram: 2 0 2 1 2 1 2 3 1 2

Total # of neighbors = 302322
Ave neighs/atom = 302.322
Neighbor list builds = 1000
Dangerous builds not checked
Setting up Verlet run ...
  Unit style    : real
  Current step  : 1000
  Time step     : 1
Per MPI rank memory allocation (min/avg/max) = 3.767 | 4.376 | 4.579 Mbytes
Step Temp E_pair E_mol TotEng Press Volume Lx Ly Lz S/CPU 
    1000    328.51585   -10351.005            0   -9372.7406    26804.295    780.88209    9.2086328    9.2086328    9.2086328            0 
    1100     323.4953    -10358.05            0   -9394.7364    26378.857    781.02808    9.2092066    9.2092066    9.2092066    65.699711 
    1200    328.33573   -10394.631            0   -9416.9031    17683.622    782.76706    9.2160364    9.2160364    9.2160364    66.334831 
    1300    321.19329   -10394.056            0    -9437.597    17549.353    785.41139    9.2264026    9.2264026    9.2264026    71.504985 
    1400    308.96872   -10377.477            0   -9457.4207   -7918.2704    788.40379    9.2381052    9.2381052    9.2381052    60.623826 
    1500    322.68225   -10437.158            0   -9476.2652   -8035.8935    791.29667    9.2493905    9.2493905    9.2493905    82.993413 
    1600    322.68736   -10455.982            0   -9495.0742   -21448.366    793.41557     9.257639     9.257639     9.257639    75.119811 
    1700    307.42663   -10426.131            0    -9510.667   -19317.244    794.20626    9.2607132    9.2607132    9.2607132    62.899691 
    1800    298.07996    -10413.22            0   -9525.5893   -9065.6817    793.83427    9.2592672    9.2592672    9.2592672    67.037369 
    1900    304.08629   -10445.923            0    -9540.406   -13667.071    792.61799    9.2545358    9.2545358    9.2545358    86.665454 
    2000    304.17654    -10460.91            0   -9555.1242       -19757    790.52601    9.2463868    9.2463868    9.2463868     84.93041 
Loop time of 14.0266 on 16 procs for 1000 steps with 1000 atoms

Performance: 6.160 ns/day, 3.896 hours/ns, 71.293 timesteps/s
94.9% CPU use with 16 MPI tasks x no OpenMP threads

MPI task timing breakdown:
Section |  min time  |  avg time  |  max time  |%varavg| %total
---------------------------------------------------------------
Pair    | 1.7956     | 1.9635     | 2.1291     |   5.8 | 14.00
Neigh   | 0.73682    | 0.77623    | 0.82572    |   2.4 |  5.53
Comm    | 0.66796    | 0.88264    | 1.0898     |  10.7 |  6.29
Output  | 7.0287     | 7.2395     | 10.347     |  29.8 | 51.61
Modify  | 0.047576   | 3.1555     | 3.3663     |  45.2 | 22.50
Other   |            | 0.009139   |            |       |  0.07

Nlocal:    62.5 ave 71 max 54 min
Histogram: 1 1 1 3 1 4 1 2 1 1
Nghost:    1857.31 ave 1908 max 1820 min
Histogram: 4 2 1 1 0 3 0 2 2 1
Neighs:    0 ave 0 max 0 min
Histogram: 16 0 0 0 0 0 0 0 0 0
FullNghs:  18654.5 ave 21355 max 15981 min
Histogram: 1 1 1 4 0 3 2 3 0 1

Total # of neighbors = 298472
Ave neighs/atom = 298.472
Neighbor list builds = 1000
Dangerous builds not checked
Setting up Verlet run ...
  Unit style    : real
  Current step  : 2000
  Time step     : 1
Per MPI rank memory allocation (min/avg/max) = 3.768 | 4.528 | 4.58 Mbytes
Step Temp E_pair E_mol TotEng Press Volume Lx Ly Lz S/CPU 
    2000    304.17654    -10460.91            0   -9555.1242       -19757    790.52601    9.2463868    9.2463868    9.2463868            0 
    2100    311.43013   -10496.753            0   -9569.3668   -17734.333    787.41516    9.2342421    9.2342421    9.2342421    63.720659 
    2200    306.19139   -10492.484            0   -9580.6984   -8067.0313    783.65486    9.2195193    9.2195193    9.2195193    77.279854 
    2300    301.00766   -10487.049            0      -9590.7   -172.03319    779.69668    9.2039707    9.2039707    9.2039707    83.634733 
    2400    301.07305   -10496.022            0    -9599.478   -2493.7911    776.06397    9.1896543    9.1896543    9.1896543    71.096976 
    2500    292.09128    -10476.71            0   -9606.9121    9349.5167    772.86965    9.1770286    9.1770286    9.1770286    66.507848 
    2600    299.36933   -10506.162            0    -9614.691    8562.2436    770.41594    9.1673065    9.1673065    9.1673065    80.309546 
    2700    297.43539   -10508.895            0   -9623.1834     10508.71    769.26278    9.1627304    9.1627304    9.1627304    78.371207 
    2800     289.3853   -10492.264            0   -9630.5244    5478.6881    769.39969    9.1632739    9.1632739    9.1632739     72.11936 
    2900    303.46935   -10540.823            0   -9637.1431    16091.819    770.47416    9.1675374    9.1675374    9.1675374    59.655161 
    3000    292.17314   -10513.014            0   -9642.9725        20894    772.34236    9.1749411    9.1749411    9.1749411    75.886392 
Loop time of 13.871 on 16 procs for 1000 steps with 1000 atoms

Performance: 6.229 ns/day, 3.853 hours/ns, 72.093 timesteps/s
94.9% CPU use with 16 MPI tasks x no OpenMP threads

MPI task timing breakdown:
Section |  min time  |  avg time  |  max time  |%varavg| %total
---------------------------------------------------------------
Pair    | 1.9504     | 2.0514     | 2.2477     |   5.4 | 14.79
Neigh   | 0.76107    | 0.79558    | 0.85198    |   2.5 |  5.74
Comm    | 0.59767    | 0.84959    | 0.97816    |  10.5 |  6.12
Output  | 6.3932     | 6.6286     | 10.104     |  34.9 | 47.79
Modify  | 0.059996   | 3.5365     | 3.7768     |  47.7 | 25.50
Other   |            | 0.009257   |            |       |  0.07

Nlocal:    62.5 ave 67 max 56 min
Histogram: 1 2 2 0 1 0 3 0 3 4
Nghost:    1882.25 ave 1904 max 1863 min
Histogram: 2 0 2 5 0 2 2 0 1 2
Neighs:    0 ave 0 max 0 min
Histogram: 16 0 0 0 0 0 0 0 0 0
FullNghs:  19119.4 ave 20726 max 17001 min
Histogram: 1 1 3 1 0 2 1 2 1 4

Total # of neighbors = 305910
Ave neighs/atom = 305.91
Neighbor list builds = 1000
Dangerous builds not checked
Setting up Verlet run ...
  Unit style    : real
  Current step  : 3000
  Time step     : 1
Per MPI rank memory allocation (min/avg/max) = 4.577 | 4.578 | 4.58 Mbytes
Step Temp E_pair E_mol TotEng Press Volume Lx Ly Lz S/CPU 
    3000    292.17314   -10513.014            0   -9642.9725        20894    772.34236    9.1749411    9.1749411    9.1749411            0 
    3100    304.67648   -10554.315            0   -9647.0403    7003.5593    774.83441    9.1847985    9.1847985    9.1847985     84.48125 
    3200     277.5622   -10475.871            0   -9649.3381   -6634.3902    777.59612    9.1956979    9.1956979    9.1956979    56.577673 
    3300    294.87538   -10529.411            0   -9651.3222    3387.3398    780.15339    9.2057674    9.2057674    9.2057674    67.568277 
    3400    293.92798   -10525.552            0    -9650.285    3603.0009    782.53226    9.2151148    9.2151148    9.2151148    73.982579 
    3500    291.90375   -10516.146            0   -9646.9061   -5270.3359    784.73719    9.2237618    9.2237618    9.2237618    84.312993 
    3600    289.30381   -10504.365            0   -9642.8675   -4310.6266      786.388    9.2302251    9.2302251    9.2302251     62.26789 
    3700    294.22524   -10513.581            0   -9637.4282   -11584.052    787.64188    9.2351283    9.2351283    9.2351283    90.786265 
    3800    305.17639   -10537.383            0   -9628.6202    1833.0855    788.36482    9.2379529    9.2379529    9.2379529    75.920107 
    3900    303.34567   -10522.803            0   -9619.4917   -14880.245    788.53989    9.2386367    9.2386367    9.2386367    59.521811 
    4000    319.95968   -10562.521            0   -9609.7352   -4742.5457    787.91338    9.2361893    9.2361893    9.2361893    69.377727 
Loop time of 14.115 on 16 procs for 1000 steps with 1000 atoms

Performance: 6.121 ns/day, 3.921 hours/ns, 70.847 timesteps/s
94.9% CPU use with 16 MPI tasks x no OpenMP threads

MPI task timing breakdown:
Section |  min time  |  avg time  |  max time  |%varavg| %total
---------------------------------------------------------------
Pair    | 1.8348     | 1.9958     | 2.1605     |   6.3 | 14.14
Neigh   | 0.74061    | 0.78619    | 0.83592    |   3.1 |  5.57
Comm    | 0.65558    | 0.86341    | 1.0708     |  12.4 |  6.12
Output  | 6.6634     | 6.9005     | 10.401     |  34.4 | 48.89
Modify  | 0.061787   | 3.56       | 3.797      |  47.9 | 25.22
Other   |            | 0.009159   |            |       |  0.06

Nlocal:    62.5 ave 69 max 56 min
Histogram: 1 2 1 2 0 3 5 1 0 1
Nghost:    1860.69 ave 1878 max 1844 min
Histogram: 1 0 2 3 2 3 3 1 0 1
Neighs:    0 ave 0 max 0 min
Histogram: 16 0 0 0 0 0 0 0 0 0
FullNghs:  18743.5 ave 20719 max 16724 min
Histogram: 3 0 1 1 2 2 4 1 1 1

Total # of neighbors = 299896
Ave neighs/atom = 299.896
Neighbor list builds = 1000
Dangerous builds not checked
Setting up Verlet run ...
  Unit style    : real
  Current step  : 4000
  Time step     : 1
Per MPI rank memory allocation (min/avg/max) = 4.577 | 4.578 | 4.58 Mbytes
Step Temp E_pair E_mol TotEng Press Volume Lx Ly Lz S/CPU 
    4000    319.95968   -10562.521            0   -9609.7352   -4742.5457    787.91338    9.2361893    9.2361893    9.2361893            0 
    4100    301.28971   -10496.452            0   -9599.2631    10732.188    786.76774    9.2317106    9.2317106    9.2317106    80.219449 
    4200    299.93144    -10483.65            0   -9590.5051    10134.928     785.8565    9.2281451    9.2281451    9.2281451    79.083778 
    4300    297.49131   -10468.631            0   -9582.7532    3091.7467    785.46403    9.2266087    9.2266087    9.2266087    57.927634 
    4400    308.67396   -10496.293            0   -9577.1143    -1860.147    785.19289    9.2255469    9.2255469    9.2255469     88.65577 
    4500    305.98509   -10483.177            0   -9572.0051    7914.5716    784.65122    9.2234249    9.2234249    9.2234249    80.827063 
    4600    304.41602   -10475.252            0   -9568.7526    3343.3707    784.52821    9.2229429    9.2229429    9.2229429    66.914334 
    4700    305.38057   -10475.324            0   -9565.9527    3520.4714    784.80792    9.2240389    9.2240389    9.2240389    57.981371 
    4800    306.44917   -10477.457            0   -9564.9036     7335.488    785.64705    9.2273252    9.2273252    9.2273252    87.670378 
    4900     312.1722   -10493.839            0   -9564.2434    6603.0594    786.76459    9.2316983    9.2316983    9.2316983    79.698979 
    5000    306.14655   -10477.242            0   -9565.5894   -8043.2545    788.16424    9.2371694    9.2371694    9.2371694    60.723603 
Loop time of 13.8638 on 16 procs for 1000 steps with 1000 atoms

Performance: 6.232 ns/day, 3.851 hours/ns, 72.130 timesteps/s
94.9% CPU use with 16 MPI tasks x no OpenMP threads

MPI task timing breakdown:
Section |  min time  |  avg time  |  max time  |%varavg| %total
---------------------------------------------------------------
Pair    | 1.7966     | 1.9657     | 2.1038     |   4.7 | 14.18
Neigh   | 0.72973    | 0.77834    | 0.82332    |   2.3 |  5.61
Comm    | 0.66767    | 0.85303    | 1.071      |   9.3 |  6.15
Output  | 6.797      | 7.0128     | 10.194     |  31.0 | 50.58
Modify  | 0.06613    | 3.2449     | 3.4607     |  45.6 | 23.41
Other   |            | 0.009114   |            |       |  0.07

Nlocal:    62.5 ave 68 max 56 min
Histogram: 1 0 2 1 1 5 2 2 0 2
Nghost:    1847.19 ave 1875 max 1828 min
Histogram: 3 0 4 1 2 3 0 2 0 1
Neighs:    0 ave 0 max 0 min
Histogram: 16 0 0 0 0 0 0 0 0 0
FullNghs:  18737.4 ave 20429 max 16847 min
Histogram: 1 0 3 0 5 1 3 1 0 2

Total # of neighbors = 299798
Ave neighs/atom = 299.798
Neighbor list builds = 1000
Dangerous builds not checked
Setting up Verlet run ...
  Unit style    : real
  Current step  : 5000
  Time step     : 1
Per MPI rank memory allocation (min/avg/max) = 4.577 | 4.578 | 4.58 Mbytes
Step Temp E_pair E_mol TotEng Press Volume Lx Ly Lz S/CPU 
    5000    306.14655   -10477.242            0   -9565.5894   -8043.2545    788.16424    9.2371694    9.2371694    9.2371694            0 
    5100    315.29886   -10508.759            0   -9569.8532   -7744.0134    789.34372    9.2417749    9.2417749    9.2417749    71.080082 
    5200     301.2964    -10472.65            0   -9575.4408   -14640.665    790.05432    9.2445474    9.2445474    9.2445474    69.464076 
    5300    302.35836     -10483.3            0   -9582.9288     -8651.31    790.12725    9.2448318    9.2448318    9.2448318    70.302746 
    5400    293.22759   -10465.671            0   -9592.4896   -6904.5807    789.56636    9.2426437    9.2426437    9.2426437    80.135669 
    5500    308.26241   -10520.631            0   -9602.6784   -7872.5981    788.58989     9.238832     9.238832     9.238832     77.69961 
    5600    301.33877   -10510.491            0   -9613.1552   -15704.254    787.16966    9.2332823    9.2332823    9.2332823    96.184839 
    5700    304.31837   -10528.851            0   -9622.6428    6561.2783    785.27917    9.2258848    9.2258848    9.2258848    65.232558 
    5800    298.65009   -10520.771            0   -9631.4422   -7231.4565    783.45464     9.218734     9.218734     9.218734     71.50159 
    5900    288.86519   -10498.894            0   -9638.7028    4708.2329    781.93611    9.2127741    9.2127741    9.2127741    77.668443 
    6000    294.38456   -10522.118            0   -9645.4908   -12746.461    780.80408    9.2083261    9.2083261    9.2083261     64.12919 
Loop time of 13.6219 on 16 procs for 1000 steps with 1000 atoms

Performance: 6.343 ns/day, 3.784 hours/ns, 73.411 timesteps/s
95.0% CPU use with 16 MPI tasks x no OpenMP threads

MPI task timing breakdown:
Section |  min time  |  avg time  |  max time  |%varavg| %total
---------------------------------------------------------------
Pair    | 1.8257     | 1.9858     | 2.1039     |   5.7 | 14.58
Neigh   | 0.73819    | 0.78751    | 0.82844    |   3.0 |  5.78
Comm    | 0.67633    | 0.83127    | 1.0408     |  11.6 |  6.10
Output  | 6.7206     | 6.9264     | 9.9585     |  29.7 | 50.85
Modify  | 0.049099   | 3.0818     | 3.2877     |  44.6 | 22.62
Other   |            | 0.009182   |            |       |  0.07

Nlocal:    62.5 ave 69 max 58 min
Histogram: 5 1 2 1 1 1 1 1 1 2
Nghost:    1861.62 ave 1873 max 1852 min
Histogram: 1 5 1 1 1 2 0 1 2 2
Neighs:    0 ave 0 max 0 min
Histogram: 16 0 0 0 0 0 0 0 0 0
FullNghs:  18908.1 ave 20868 max 17309 min
Histogram: 2 3 2 2 0 1 2 1 0 3

Total # of neighbors = 302530
Ave neighs/atom = 302.53
Neighbor list builds = 1000
Dangerous builds not checked
Setting up Verlet run ...
  Unit style    : real
  Current step  : 6000
  Time step     : 1
Per MPI rank memory allocation (min/avg/max) = 4.577 | 4.578 | 4.58 Mbytes
Step Temp E_pair E_mol TotEng Press Volume Lx Ly Lz S/CPU 
    6000    294.38456   -10522.118            0   -9645.4908   -12746.461    780.80408    9.2083261    9.2083261    9.2083261            0 
    6100    292.52384   -10520.037            0   -9648.9505    10461.715    779.58578    9.2035343    9.2035343    9.2035343    66.451175 
    6200    303.73428   -10556.605            0   -9652.1367    2722.2262    778.80683     9.200468     9.200468     9.200468    89.624651 
    6300    304.45284   -10559.868            0   -9653.2597    5480.2244    778.19135    9.1980437    9.1980437    9.1980437    74.733999 
    6400     297.2485   -10537.497            0   -9652.3418    5893.6823    777.94471    9.1970718    9.1970718    9.1970718    64.008562 
    6500    297.44902   -10537.754            0   -9652.0013    16888.765    778.06139    9.1975316    9.1975316    9.1975316    75.468754 
    6600    291.96054   -10519.985            0   -9650.5766    6143.6683     778.9014    9.2008403    9.2008403    9.2008403    67.002679 
    6700     292.9901   -10520.913            0   -9648.4383   -2160.1715    780.18636    9.2058972    9.2058972    9.2058972     65.58984 
    6800    290.89673   -10512.018            0   -9645.7772    2001.7454    781.86719    9.2125034    9.2125034    9.2125034    77.228686 
    6900    307.24523   -10558.209            0   -9643.2857     752.8564    784.09302    9.2212373    9.2212373    9.2212373    62.923652 
    7000    303.16557   -10542.231            0   -9639.4554   -12140.831    786.40455    9.2302899    9.2302899    9.2302899     64.13259 
Loop time of 14.3065 on 16 procs for 1000 steps with 1000 atoms

Performance: 6.039 ns/day, 3.974 hours/ns, 69.898 timesteps/s
94.9% CPU use with 16 MPI tasks x no OpenMP threads

MPI task timing breakdown:
Section |  min time  |  avg time  |  max time  |%varavg| %total
---------------------------------------------------------------
Pair    | 1.933      | 2.0281     | 2.1269     |   3.9 | 14.18
Neigh   | 0.76171    | 0.7909     | 0.83841    |   2.2 |  5.53
Comm    | 0.72976    | 0.87381    | 0.9923     |   7.9 |  6.11
Output  | 7.0842     | 7.304      | 10.547     |  31.0 | 51.05
Modify  | 0.055343   | 3.3004     | 3.5213     |  46.1 | 23.07
Other   |            | 0.009221   |            |       |  0.06

Nlocal:    62.5 ave 68 max 58 min
Histogram: 2 2 2 1 2 1 0 2 1 3
Nghost:    1862.38 ave 1884 max 1848 min
Histogram: 2 1 3 2 3 3 1 0 0 1
Neighs:    0 ave 0 max 0 min
Histogram: 16 0 0 0 0 0 0 0 0 0
FullNghs:  18765.5 ave 20515 max 17393 min
Histogram: 3 3 1 1 2 0 2 1 1 2

Total # of neighbors = 300248
Ave neighs/atom = 300.248
Neighbor list builds = 1000
Dangerous builds not checked
Setting up Verlet run ...
  Unit style    : real
  Current step  : 7000
  Time step     : 1
Per MPI rank memory allocation (min/avg/max) = 4.577 | 4.578 | 4.58 Mbytes
Step Temp E_pair E_mol TotEng Press Volume Lx Ly Lz S/CPU 
    7000    303.16557   -10542.231            0   -9639.4554   -12140.831    786.40455    9.2302899    9.2302899    9.2302899            0 
    7100     300.6342   -10533.221            0   -9637.9832    -19793.38    787.79922    9.2357432    9.2357432    9.2357432    62.907452 
    7200    299.26343   -10527.654            0   -9636.4987   -20391.757    788.15688    9.2371407    9.2371407    9.2371407    79.038146 
    7300    288.39169   -10491.979            0   -9633.1975   -2793.6137    787.69602    9.2353399    9.2353399    9.2353399    75.192257 
    7400    303.75386    -10536.98            0   -9632.4533    2630.3757    786.69799    9.2314378    9.2314378    9.2314378    69.213662 
    7500    304.43291   -10536.124            0   -9629.5748   -3392.2371    785.44379    9.2265294    9.2265294    9.2265294    69.254565 
    7600    292.90816   -10497.262            0   -9625.0318    4476.6876    784.10951    9.2213019    9.2213019    9.2213019    78.929925 
    7700    292.49471   -10492.089            0     -9621.09    816.77654    783.12743    9.2174504    9.2174504    9.2174504    83.665498 
    7800    296.05535   -10498.772            0   -9617.1696    12071.955    782.75806    9.2160011    9.2160011    9.2160011    57.711943 
    7900     299.3365   -10503.708            0   -9612.3348    5320.4014    782.69561     9.215756     9.215756     9.215756    64.179244 
    8000    296.98941    -10490.98            0   -9606.5962    6263.8272    782.96045    9.2167953    9.2167953    9.2167953    87.127633 
Loop time of 13.9743 on 16 procs for 1000 steps with 1000 atoms

Performance: 6.183 ns/day, 3.882 hours/ns, 71.560 timesteps/s
94.9% CPU use with 16 MPI tasks x no OpenMP threads

MPI task timing breakdown:
Section |  min time  |  avg time  |  max time  |%varavg| %total
---------------------------------------------------------------
Pair    | 1.9253     | 1.9962     | 2.106      |   3.6 | 14.28
Neigh   | 0.76855    | 0.78675    | 0.83467    |   1.9 |  5.63
Comm    | 0.68905    | 0.84482    | 0.93132    |   7.1 |  6.05
Output  | 6.9667     | 7.1787     | 10.301     |  30.1 | 51.37
Modify  | 0.034189   | 3.1587     | 3.371      |  45.4 | 22.60
Other   |            | 0.009189   |            |       |  0.07

Nlocal:    62.5 ave 67 max 59 min
Histogram: 1 2 3 2 0 4 1 1 1 1
Nghost:    1855.5 ave 1887 max 1832 min
Histogram: 2 2 0 2 5 2 1 0 1 1
Neighs:    0 ave 0 max 0 min
Histogram: 16 0 0 0 0 0 0 0 0 0
FullNghs:  18863.1 ave 20291 max 17791 min
Histogram: 3 0 3 2 1 3 2 0 1 1

Total # of neighbors = 301810
Ave neighs/atom = 301.81
Neighbor list builds = 1000
Dangerous builds not checked
Setting up Verlet run ...
  Unit style    : real
  Current step  : 8000
  Time step     : 1
Per MPI rank memory allocation (min/avg/max) = 4.577 | 4.578 | 4.58 Mbytes
Step Temp E_pair E_mol TotEng Press Volume Lx Ly Lz S/CPU 
    8000    296.98941    -10490.98            0   -9606.5962    6263.8272    782.96045    9.2167953    9.2167953    9.2167953            0 
    8100    300.17936   -10497.025            0   -9603.1425   -1796.4166    783.94462    9.2206555    9.2206555    9.2206555     78.23966 
    8200    295.96973   -10480.502            0   -9599.1543   -2868.4856     785.0749    9.2250847    9.2250847    9.2250847    72.296918 
    8300    289.58961   -10458.332            0   -9595.9839    2590.8637    786.25377    9.2296999    9.2296999    9.2296999     69.30843 
    8400    312.88975   -10525.948            0   -9594.2161    4495.8808     787.2925    9.2337626    9.2337626    9.2337626    95.384927 
    8500    294.58938   -10467.968            0   -9590.7313   -3728.4967    787.99368    9.2365031    9.2365031    9.2365031    88.102069 
    8600    294.26487   -10463.971            0   -9587.7006   -17985.899    788.06129    9.2367672    9.2367672    9.2367672    54.856036 
    8700    298.28582   -10472.594            0   -9584.3496   -4992.4664    787.11364    9.2330633    9.2330633    9.2330633    70.956066 
    8800    303.32683   -10482.884            0   -9579.6283   -1322.5956    785.44685    9.2265414    9.2265414    9.2265414    77.279031 
    8900    304.11767   -10480.764            0   -9575.1536    553.51467    783.17213    9.2176258    9.2176258    9.2176258    55.390485 
    9000    299.74477   -10458.494            0   -9565.9056    3314.8377    781.09232    9.2094591    9.2094591    9.2094591    64.852995 
Loop time of 14.1612 on 16 procs for 1000 steps with 1000 atoms

Performance: 6.101 ns/day, 3.934 hours/ns, 70.615 timesteps/s
94.9% CPU use with 16 MPI tasks x no OpenMP threads

MPI task timing breakdown:
Section |  min time  |  avg time  |  max time  |%varavg| %total
---------------------------------------------------------------
Pair    | 1.8157     | 1.9734     | 2.0971     |   4.7 | 13.94
Neigh   | 0.7378     | 0.77997    | 0.82916    |   2.3 |  5.51
Comm    | 0.68358    | 0.85677    | 1.0577     |   9.1 |  6.05
Output  | 6.9496     | 7.1749     | 10.499     |  32.0 | 50.67
Modify  | 0.043048   | 3.3671     | 3.5922     |  46.8 | 23.78
Other   |            | 0.009145   |            |       |  0.06

Nlocal:    62.5 ave 67 max 57 min
Histogram: 1 0 0 4 3 0 2 1 1 4
Nghost:    1865.62 ave 1889 max 1830 min
Histogram: 1 0 0 3 2 1 4 2 0 3
Neighs:    0 ave 0 max 0 min
Histogram: 16 0 0 0 0 0 0 0 0 0
FullNghs:  18891 ave 20551 max 17161 min
Histogram: 1 0 3 4 0 2 1 2 2 1

Total # of neighbors = 302256
Ave neighs/atom = 302.256
Neighbor list builds = 1000
Dangerous builds not checked
Setting up Verlet run ...
  Unit style    : real
  Current step  : 9000
  Time step     : 1
Per MPI rank memory allocation (min/avg/max) = 4.577 | 4.578 | 4.58 Mbytes
Step Temp E_pair E_mol TotEng Press Volume Lx Ly Lz S/CPU 
    9000    299.74477   -10458.494            0   -9565.9056    3314.8377    781.09232    9.2094591    9.2094591    9.2094591            0 
    9100    302.99225   -10459.392            0   -9557.1327    15124.635     779.4024    9.2028126    9.2028126    9.2028126    87.930804 
    9200    308.21449    -10466.18            0   -9548.3703    6633.6121    778.41756    9.1989348    9.1989348    9.1989348    61.638646 
    9300    314.12407   -10474.892            0   -9539.4845   -2348.3386    778.07404    9.1975814    9.1975814    9.1975814    73.207985 
    9400    302.01151   -10432.576            0   -9533.2374     9462.971    778.44386    9.1990384    9.1990384    9.1990384     75.50692 
    9500    316.17593   -10473.583            0   -9532.0653    5109.2736    779.53803    9.2033464    9.2033464    9.2033464    78.978144 
    9600    322.09204   -10493.264            0   -9534.1289    608.90063    781.07997    9.2094105    9.2094105    9.2094105    57.102494 
    9700    317.57478   -10485.687            0   -9540.0038   -6150.8902    782.58757    9.2153319    9.2153319    9.2153319    62.436607 
    9800    306.28232   -10461.285            0   -9549.2281    5335.9077    783.92935    9.2205956    9.2205956    9.2205956    68.319616 
    9900    297.44918   -10447.647            0   -9561.8944   -9873.6758    785.23758    9.2257219    9.2257219    9.2257219    67.067629 
   10000    297.27099   -10459.877            0    -9574.655   -15649.596    785.67481    9.2274339    9.2274339    9.2274339    77.015677 
Loop time of 14.3222 on 16 procs for 1000 steps with 1000 atoms

Performance: 6.033 ns/day, 3.978 hours/ns, 69.822 timesteps/s
94.9% CPU use with 16 MPI tasks x no OpenMP threads

MPI task timing breakdown:
Section |  min time  |  avg time  |  max time  |%varavg| %total
---------------------------------------------------------------
Pair    | 1.9003     | 1.9873     | 2.0726     |   4.3 | 13.88
Neigh   | 0.75249    | 0.77834    | 0.80613    |   1.8 |  5.43
Comm    | 0.75856    | 0.8712     | 0.98453    |   8.0 |  6.08
Output  | 7.0434     | 7.2701     | 10.617     |  32.0 | 50.76
Modify  | 0.058847   | 3.4061     | 3.633      |  46.8 | 23.78
Other   |            | 0.009147   |            |       |  0.06

Nlocal:    62.5 ave 69 max 55 min
Histogram: 2 0 1 1 1 3 4 2 1 1
Nghost:    1845.12 ave 1863 max 1827 min
Histogram: 1 3 2 1 1 1 2 1 3 1
Neighs:    0 ave 0 max 0 min
Histogram: 16 0 0 0 0 0 0 0 0 0
FullNghs:  18794.5 ave 20760 max 16439 min
Histogram: 1 1 1 1 1 4 4 1 0 2

Total # of neighbors = 300712
Ave neighs/atom = 300.712
Neighbor list builds = 1000
Dangerous builds not checked
Setting up Verlet run ...
  Unit style    : real
  Current step  : 10000
  Time step     : 1
Per MPI rank memory allocation (min/avg/max) = 4.577 | 4.578 | 4.58 Mbytes
Step Temp E_pair E_mol TotEng Press Volume Lx Ly Lz S/CPU 
   10000    297.27099   -10459.877            0    -9574.655   -15649.596    785.67481    9.2274339    9.2274339    9.2274339            0 
   10100    286.70477   -10437.436            0   -9583.6778   -15246.735    785.23914     9.225728     9.225728     9.225728    87.731723 
   10200    298.06875   -10480.867            0   -9593.2694    5111.2848    784.48165    9.2227605    9.2227605    9.2227605    84.893601 
   10300    302.52017   -10501.328            0   -9600.4741   -7676.5948    783.47584    9.2188172    9.2188172    9.2188172    56.971584 
   10400    288.72859   -10465.248            0   -9605.4634    527.64958    782.21684    9.2138765    9.2138765    9.2138765    79.316334 
   10500    300.53666   -10504.764            0   -9609.8171   -4010.2214    781.22868     9.209995     9.209995     9.209995    87.141674 
   10600    305.36888   -10523.345            0   -9614.0089    1820.1558    780.19699    9.2059389    9.2059389    9.2059389    82.215381 
   10700    293.59462   -10490.876            0   -9616.6014    1080.3095    779.29246    9.2023799    9.2023799    9.2023799    55.662384 
   10800    298.91449   -10508.933            0   -9618.8167     9511.776    778.72407    9.2001421    9.2001421    9.2001421    78.332095 
   10900    305.67158   -10531.079            0   -9620.8411    7939.8425    778.11822    9.1977555    9.1977555    9.1977555    96.565556 
   11000    301.71752   -10520.418            0   -9621.9546   -8577.8758    777.66002    9.1959498    9.1959498    9.1959498    70.750013 
Loop time of 13.2199 on 16 procs for 1000 steps with 1000 atoms

Performance: 6.536 ns/day, 3.672 hours/ns, 75.644 timesteps/s
95.0% CPU use with 16 MPI tasks x no OpenMP threads

MPI task timing breakdown:
Section |  min time  |  avg time  |  max time  |%varavg| %total
---------------------------------------------------------------
Pair    | 1.9005     | 1.9675     | 2.0987     |   3.8 | 14.88
Neigh   | 0.74111    | 0.77074    | 0.82492    |   2.2 |  5.83
Comm    | 0.69227    | 0.87817    | 0.97472    |   7.7 |  6.64
Output  | 6.6556     | 6.8386     | 9.5289     |  26.6 | 51.73
Modify  | 0.06547    | 2.7558     | 2.9392     |  41.8 | 20.85
Other   |            | 0.009084   |            |       |  0.07

Nlocal:    62.5 ave 67 max 58 min
Histogram: 1 2 0 3 2 3 1 1 2 1
Nghost:    1868.75 ave 1908 max 1849 min
Histogram: 3 2 3 2 2 2 1 0 0 1
Neighs:    0 ave 0 max 0 min
Histogram: 16 0 0 0 0 0 0 0 0 0
FullNghs:  18966.2 ave 20367 max 17419 min
Histogram: 1 2 0 2 2 3 2 1 1 2

Total # of neighbors = 303460
Ave neighs/atom = 303.46
Neighbor list builds = 1000
Dangerous builds not checked
Setting up Verlet run ...
  Unit style    : real
  Current step  : 11000
  Time step     : 1
Per MPI rank memory allocation (min/avg/max) = 4.577 | 4.578 | 4.58 Mbytes
Step Temp E_pair E_mol TotEng Press Volume Lx Ly Lz S/CPU 
   11000    301.71752   -10520.418            0   -9621.9546   -8577.8758    777.66002    9.1959498    9.1959498    9.1959498            0 
   11100    296.92116   -10506.831            0   -9622.6503   -393.62607    777.25627     9.194358     9.194358     9.194358    61.951725 
   11200    298.53356   -10513.648            0   -9624.6657    6853.6503    776.97427     9.193246     9.193246     9.193246    87.007401 
   11300    300.69633   -10519.011            0   -9623.5888    1418.1376    776.99563    9.1933302    9.1933302    9.1933302    79.103244 
   11400    289.15776   -10483.627            0   -9622.5646    6253.3388    777.18682    9.1940842    9.1940842    9.1940842    64.200472 
   11500    297.52759   -10508.396            0   -9622.4097    9167.5302    777.82128    9.1965854    9.1965854    9.1965854    85.105448 
   11600    304.91962   -10529.762            0   -9621.7632    9098.8555      779.019    9.2013034    9.2013034    9.2013034    73.871763 
   11700    294.93439   -10495.579            0   -9617.3147    2977.1143    780.28517    9.2062858    9.2062858    9.2062858    75.439482 
   11800    297.30379   -10496.098            0   -9610.7784    8911.1153    781.55017    9.2112582    9.2112582    9.2112582    60.569993 
   11900    304.23209   -10508.081            0     -9602.13   -1731.8209    783.21058    9.2177767    9.2177767    9.2177767    78.672876 
   12000    297.85508   -10476.029            0   -9589.0677   -9581.9421    785.09356    9.2251578    9.2251578    9.2251578    76.568502 
Loop time of 13.6677 on 16 procs for 1000 steps with 1000 atoms

Performance: 6.321 ns/day, 3.797 hours/ns, 73.165 timesteps/s
95.0% CPU use with 16 MPI tasks x no OpenMP threads

MPI task timing breakdown:
Section |  min time  |  avg time  |  max time  |%varavg| %total
---------------------------------------------------------------
Pair    | 1.8795     | 2.0114     | 2.1406     |   4.9 | 14.72
Neigh   | 0.75407    | 0.78618    | 0.82431    |   2.3 |  5.75
Comm    | 0.70773    | 0.87495    | 1.0302     |   9.4 |  6.40
Output  | 6.8919     | 7.0842     | 9.9148     |  27.5 | 51.83
Modify  | 0.070358   | 2.9017     | 3.0945     |  42.9 | 21.23
Other   |            | 0.009213   |            |       |  0.07

Nlocal:    62.5 ave 70 max 57 min
Histogram: 2 1 3 2 2 2 2 0 1 1
Nghost:    1856.06 ave 1871 max 1844 min
Histogram: 3 0 3 3 0 3 1 0 1 2
Neighs:    0 ave 0 max 0 min
Histogram: 16 0 0 0 0 0 0 0 0 0
FullNghs:  18777.4 ave 21098 max 17088 min
Histogram: 2 1 3 2 1 3 2 0 1 1

Total # of neighbors = 300438
Ave neighs/atom = 300.438
Neighbor list builds = 1000
Dangerous builds not checked
Setting up Verlet run ...
  Unit style    : real
  Current step  : 12000
  Time step     : 1
Per MPI rank memory allocation (min/avg/max) = 4.577 | 4.578 | 4.58 Mbytes
Step Temp E_pair E_mol TotEng Press Volume Lx Ly Lz S/CPU 
   12000    297.85508   -10476.029            0   -9589.0677   -9581.9421    785.09356    9.2251578    9.2251578    9.2251578            0 
   12100    302.79163   -10476.454            0   -9574.7926   -1574.3228    786.73302    9.2315748    9.2315748    9.2315748    91.173516 
   12200    297.10597   -10445.228            0   -9560.4976    4690.6427    788.12476    9.2370152    9.2370152    9.2370152    61.349699 
   12300    303.94789   -10454.885            0   -9549.7804   -9458.5673    789.68583    9.2431099    9.2431099    9.2431099    73.172122 
   12400    304.14751   -10447.058            0   -9541.3586   -1061.6678    791.48662    9.2501305    9.2501305    9.2501305    80.809421 
   12500    291.18824   -10401.757            0    -9534.648    4836.1483    793.38702    9.2575279    9.2575279    9.2575279    63.212912 
   12600    306.78515   -10445.401            0   -9531.8477   -8090.7839    794.95133    9.2636082    9.2636082    9.2636082    84.867056 
   12700    311.24255   -10456.353            0   -9529.5255   -2553.9467    795.73262    9.2666421    9.2666421    9.2666421    77.661118 
   12800    304.90571   -10436.054            0    -9528.097   -7288.6153    796.11836    9.2681392    9.2681392    9.2681392    74.003466 
   12900    314.03557   -10464.101            0   -9528.9564   -15647.629     796.1014    9.2680734    9.2680734    9.2680734    63.137095 
   13000    301.45624   -10426.926            0    -9529.241   -11399.672    795.16434    9.2644356    9.2644356    9.2644356    79.139772 
Loop time of 13.5776 on 16 procs for 1000 steps with 1000 atoms

Performance: 6.363 ns/day, 3.772 hours/ns, 73.651 timesteps/s
94.9% CPU use with 16 MPI tasks x no OpenMP threads

MPI task timing breakdown:
Section |  min time  |  avg time  |  max time  |%varavg| %total
---------------------------------------------------------------
Pair    | 1.7979     | 1.9385     | 2.0496     |   5.5 | 14.28
Neigh   | 0.72913    | 0.77657    | 0.81614    |   3.1 |  5.72
Comm    | 0.73757    | 0.88761    | 1.0718     |  11.0 |  6.54
Output  | 6.718      | 6.9205     | 9.8934     |  29.2 | 50.97
Modify  | 0.077171   | 3.0454     | 3.2474     |  43.9 | 22.43
Other   |            | 0.009073   |            |       |  0.07

Nlocal:    62.5 ave 67 max 57 min
Histogram: 1 0 3 2 1 1 0 2 3 3
Nghost:    1844.44 ave 1868 max 1830 min
Histogram: 2 1 3 4 2 2 1 0 0 1
Neighs:    0 ave 0 max 0 min
Histogram: 16 0 0 0 0 0 0 0 0 0
FullNghs:  18561 ave 19849 max 16946 min
Histogram: 1 1 3 1 2 0 1 1 3 3

Total # of neighbors = 296976
Ave neighs/atom = 296.976
Neighbor list builds = 1000
Dangerous builds not checked
Setting up Verlet run ...
  Unit style    : real
  Current step  : 13000
  Time step     : 1
Per MPI rank memory allocation (min/avg/max) = 4.577 | 4.578 | 4.58 Mbytes
Step Temp E_pair E_mol TotEng Press Volume Lx Ly Lz S/CPU 
   13000    301.45624   -10426.926            0    -9529.241   -11399.672    795.16434    9.2644356    9.2644356    9.2644356            0 
   13100    312.18576   -10463.273            0   -9533.6371    2586.1589     793.3245    9.2572847    9.2572847    9.2572847     93.51276 
   13200    312.76796   -10470.965            0   -9539.5952   -6779.3398    791.26731    9.2492761    9.2492761    9.2492761    75.627977 
   13300     306.0019    -10458.22            0    -9546.999   -11074.597    788.67922    9.2391808    9.2391808    9.2391808    62.376237 
   13400    306.30488   -10470.576            0   -9558.4519     7623.252    785.80152    9.2279299    9.2279299    9.2279299    72.167643 
   13500    306.96077   -10486.467            0   -9572.3906    9612.0156    783.08491    9.2172836    9.2172836    9.2172836    80.451089 
   13600    305.13014   -10494.225            0   -9585.5999     26800.53    780.92536    9.2088028    9.2088028    9.2088028     72.94535 
   13700    310.92751   -10524.235            0   -9598.3459     9811.215    779.82284    9.2044671    9.2044671    9.2044671    68.387567 
   13800     292.1086   -10477.097            0   -9607.2477    8265.6252    779.01077     9.201271     9.201271     9.201271    84.406823 
   13900    301.75189   -10514.496            0   -9615.9305    17270.726     778.8226    9.2005301    9.2005301    9.2005301     77.15441 
   14000    313.34793   -10555.392            0   -9622.2949    15139.021     779.9344     9.204906     9.204906     9.204906    55.939779 
Loop time of 13.7251 on 16 procs for 1000 steps with 1000 atoms

Performance: 6.295 ns/day, 3.813 hours/ns, 72.859 timesteps/s
94.9% CPU use with 16 MPI tasks x no OpenMP threads

MPI task timing breakdown:
Section |  min time  |  avg time  |  max time  |%varavg| %total
---------------------------------------------------------------
Pair    | 1.7111     | 1.974      | 2.0863     |   6.2 | 14.38
Neigh   | 0.71276    | 0.77941    | 0.80897    |   2.6 |  5.68
Comm    | 0.76028    | 0.91024    | 1.2478     |  11.8 |  6.63
Output  | 6.5927     | 6.8092     | 10.001     |  31.6 | 49.61
Modify  | 0.05934    | 3.2431     | 3.4616     |  45.6 | 23.63
Other   |            | 0.009137   |            |       |  0.07

Nlocal:    62.5 ave 66 max 60 min
Histogram: 3 3 0 1 0 4 3 0 1 1
Nghost:    1869.31 ave 1885 max 1852 min
Histogram: 1 1 1 5 1 0 2 0 1 4
Neighs:    0 ave 0 max 0 min
Histogram: 16 0 0 0 0 0 0 0 0 0
FullNghs:  18927.9 ave 19868 max 18074 min
Histogram: 2 2 2 1 1 1 4 1 0 2

Total # of neighbors = 302846
Ave neighs/atom = 302.846
Neighbor list builds = 1000
Dangerous builds not checked
Setting up Verlet run ...
  Unit style    : real
  Current step  : 14000
  Time step     : 1
Per MPI rank memory allocation (min/avg/max) = 4.577 | 4.578 | 4.58 Mbytes
Step Temp E_pair E_mol TotEng Press Volume Lx Ly Lz S/CPU 
   14000    313.34793   -10555.392            0   -9622.2949    15139.021     779.9344     9.204906     9.204906     9.204906            0 
   14100    303.83636   -10531.604            0   -9626.8312    6653.5303    782.23948    9.2139654    9.2139654    9.2139654    82.166707 
   14200    297.70133    -10517.29            0   -9630.7867   -335.92004    784.84111    9.2241689    9.2241689    9.2241689    73.475753 
   14300    288.58662   -10493.108            0   -9633.7459   -8968.6975    787.37292     9.234077     9.234077     9.234077    76.051895 
   14400    300.78174   -10530.863            0   -9635.1868    -3859.566    789.29319    9.2415777    9.2415777    9.2415777    59.560235 
   14500    302.81094   -10537.978            0   -9636.2592   -15120.087    790.20409    9.2451315    9.2451315    9.2451315    70.915947 
   14600     286.5813    -10488.47            0   -9635.0793     -8692.81    790.12609    9.2448272    9.2448272    9.2448272    78.395298 
   14700    293.04936   -10506.534            0    -9633.883    5072.0632     789.1782    9.2411289    9.2411289    9.2411289    58.112159 
   14800    290.14254   -10493.652            0    -9629.657    25252.769    788.02184    9.2366131    9.2366131    9.2366131    74.489041 
   14900    292.58019   -10494.956            0   -9623.7024    -8704.765    787.39601    9.2341672    9.2341672    9.2341672    73.189485 
   15000     290.6957   -10481.936            0   -9616.2935    -5800.523    786.78557    9.2317803    9.2317803    9.2317803    54.956409 
Loop time of 14.5068 on 16 procs for 1000 steps with 1000 atoms

Performance: 5.956 ns/day, 4.030 hours/ns, 68.933 timesteps/s
94.9% CPU use with 16 MPI tasks x no OpenMP threads

MPI task timing breakdown:
Section |  min time  |  avg time  |  max time  |%varavg| %total
---------------------------------------------------------------
Pair    | 1.8837     | 1.9622     | 2.1186     |   5.0 | 13.53
Neigh   | 0.74147    | 0.77974    | 0.82282    |   2.5 |  5.37
Comm    | 0.62881    | 0.82981    | 0.94726    |  10.1 |  5.72
Output  | 7.1814     | 7.4149     | 10.863     |  32.7 | 51.11
Modify  | 0.065297   | 3.5111     | 3.7441     |  47.5 | 24.20
Other   |            | 0.009106   |            |       |  0.06

Nlocal:    62.5 ave 66 max 60 min
Histogram: 4 1 0 3 0 3 2 0 2 1
Nghost:    1860.94 ave 1879 max 1836 min
Histogram: 1 0 0 3 1 3 3 3 0 2
Neighs:    0 ave 0 max 0 min
Histogram: 16 0 0 0 0 0 0 0 0 0
FullNghs:  18746.1 ave 19812 max 17907 min
Histogram: 4 1 0 2 2 2 2 0 2 1

Total # of neighbors = 299938
Ave neighs/atom = 299.938
Neighbor list builds = 1000
Dangerous builds not checked
Setting up Verlet run ...
  Unit style    : real
  Current step  : 15000
  Time step     : 1
Per MPI rank memory allocation (min/avg/max) = 4.577 | 4.578 | 4.58 Mbytes
Step Temp E_pair E_mol TotEng Press Volume Lx Ly Lz S/CPU 
   15000     290.6957   -10481.936            0   -9616.2935    -5800.523    786.78557    9.2317803    9.2317803    9.2317803            0 
   15100    301.74621   -10506.041            0   -9607.4918   -4092.8848    785.89702    9.2283038    9.2283038    9.2283038    67.723185 
   15200    295.68764   -10476.545            0    -9596.038   -6280.8806    784.93497    9.2245366    9.2245366    9.2245366    89.549615 
   15300    296.27092   -10465.909            0   -9583.6648   -3349.2674    784.12864    9.2213769    9.2213769    9.2213769    80.510301 
   15400    311.10854   -10500.941            0   -9574.5126    9151.8423    783.49635    9.2188976    9.2188976    9.2188976    52.592075 
   15500    298.48486   -10454.641            0    -9565.804     12570.08     783.0712    9.2172298    9.2172298    9.2172298    71.454069 
   15600    300.16425   -10455.068            0   -9561.2298    13212.682    782.93374    9.2166905    9.2166905    9.2166905    79.913085 
   15700     300.0337   -10451.019            0   -9557.5699    14689.274    783.43432    9.2186544    9.2186544    9.2186544    72.676865 
   15800    306.01445   -10468.428            0   -9557.1695    11680.983    784.67196    9.2235062    9.2235062    9.2235062    70.197095 
   15900    304.78335   -10465.532            0   -9557.9397    11132.922    786.54015    9.2308204    9.2308204    9.2308204    68.562681 
   16000    313.30717   -10493.226            0   -9560.2504     -4585.87    788.75049    9.2394591    9.2394591    9.2394591    74.916553 
Loop time of 13.9815 on 16 procs for 1000 steps with 1000 atoms

Performance: 6.180 ns/day, 3.884 hours/ns, 71.523 timesteps/s
94.9% CPU use with 16 MPI tasks x no OpenMP threads

MPI task timing breakdown:
Section |  min time  |  avg time  |  max time  |%varavg| %total
---------------------------------------------------------------
Pair    | 1.908      | 1.98       | 2.0834     |   3.9 | 14.16
Neigh   | 0.75465    | 0.7851     | 0.82365    |   2.1 |  5.62
Comm    | 0.69998    | 0.83248    | 0.92517    |   8.0 |  5.95
Output  | 6.9154     | 7.1306     | 10.304     |  30.7 | 51.00
Modify  | 0.069722   | 3.2442     | 3.4596     |  45.5 | 23.20
Other   |            | 0.009152   |            |       |  0.07

Nlocal:    62.5 ave 66 max 58 min
Histogram: 2 0 1 1 0 4 2 2 3 1
Nghost:    1854.81 ave 1879 max 1837 min
Histogram: 1 2 3 2 4 1 0 0 1 2
Neighs:    0 ave 0 max 0 min
Histogram: 16 0 0 0 0 0 0 0 0 0
FullNghs:  18704.6 ave 19712 max 17160 min
Histogram: 2 0 1 0 2 3 2 0 3 3

Total # of neighbors = 299274
Ave neighs/atom = 299.274
Neighbor list builds = 1000
Dangerous builds not checked
Setting up Verlet run ...
  Unit style    : real
  Current step  : 16000
  Time step     : 1
Per MPI rank memory allocation (min/avg/max) = 4.577 | 4.578 | 4.58 Mbytes
Step Temp E_pair E_mol TotEng Press Volume Lx Ly Lz S/CPU 
   16000    313.30717   -10493.226            0   -9560.2504     -4585.87    788.75049    9.2394591    9.2394591    9.2394591            0 
   16100    296.73186   -10445.643            0   -9562.0265    6396.0687    791.02233    9.2483214    9.2483214    9.2483214    63.103633 
   16200    300.36562   -10460.398            0   -9565.9606   -15287.196    793.21403     9.256855     9.256855     9.256855    71.305861 
   16300    306.92198   -10483.484            0   -9569.5224   -9710.7097    794.82091    9.2631016    9.2631016    9.2631016    81.990786 
   16400    293.52598   -10445.596            0   -9571.5255   -9183.9438    795.94172    9.2674537    9.2674537    9.2674537    66.580669 
   16500    301.67089    -10473.29            0   -9574.9655   -10463.064    796.47518    9.2695236    9.2695236    9.2695236    66.512767 
   16600    294.91782   -10455.825            0   -9577.6098   -26595.201    796.06103    9.2679167    9.2679167    9.2679167    89.965315 
   16700    297.55378   -10468.151            0   -9582.0866   -4324.8168    794.42409    9.2615598    9.2615598    9.2615598    76.608775 
   16800    302.63032   -10488.321            0   -9587.1395   -9268.6927    792.04792    9.2523166    9.2523166    9.2523166    66.891942 
   16900    308.41839   -10508.815            0   -9590.3973    1818.3053    788.92971    9.2401588    9.2401588    9.2401588    76.808379 
   17000     298.6595   -10482.395            0   -9593.0383    17377.121    785.49117    9.2267149    9.2267149    9.2267149    94.975241 
Loop time of 13.4789 on 16 procs for 1000 steps with 1000 atoms

Performance: 6.410 ns/day, 3.744 hours/ns, 74.190 timesteps/s
94.9% CPU use with 16 MPI tasks x no OpenMP threads

MPI task timing breakdown:
Section |  min time  |  avg time  |  max time  |%varavg| %total
---------------------------------------------------------------
Pair    | 1.8223     | 1.9407     | 2.0355     |   4.6 | 14.40
Neigh   | 0.74869    | 0.77952    | 0.81728    |   2.2 |  5.78
Comm    | 0.68317    | 0.80785    | 0.95694    |   9.2 |  5.99
Output  | 6.3036     | 6.5281     | 9.8382     |  33.5 | 48.43
Modify  | 0.10391    | 3.4136     | 3.638      |  46.3 | 25.33
Other   |            | 0.009118   |            |       |  0.07

Nlocal:    62.5 ave 68 max 59 min
Histogram: 2 1 1 4 4 2 1 0 0 1
Nghost:    1875.19 ave 1886 max 1858 min
Histogram: 1 1 1 2 1 1 1 1 4 3
Neighs:    0 ave 0 max 0 min
Histogram: 16 0 0 0 0 0 0 0 0 0
FullNghs:  18800.8 ave 20614 max 17492 min
Histogram: 2 1 1 3 4 2 2 0 0 1

Total # of neighbors = 300812
Ave neighs/atom = 300.812
Neighbor list builds = 1000
Dangerous builds not checked
Setting up Verlet run ...
  Unit style    : real
  Current step  : 17000
  Time step     : 1
Per MPI rank memory allocation (min/avg/max) = 4.577 | 4.578 | 4.58 Mbytes
Step Temp E_pair E_mol TotEng Press Volume Lx Ly Lz S/CPU 
   17000     298.6595   -10482.395            0   -9593.0383    17377.121    785.49117    9.2267149    9.2267149    9.2267149            0 
   17100    299.48135    -10489.02            0   -9597.2154    31138.929     782.2485    9.2140008    9.2140008    9.2140008    73.049226 
   17200    311.99767   -10533.036            0     -9603.96    4832.5581    780.11946     9.205634     9.205634     9.205634    73.646782 
   17300      294.553   -10490.031            0    -9612.902    7464.2437    778.83282    9.2005703    9.2005703    9.2005703    77.493809 
   17400    302.60976   -10530.213            0   -9629.0929   -3134.2383    778.07324    9.1975783    9.1975783    9.1975783    78.124877 
   17500    283.47605   -10489.508            0   -9645.3652    11685.724    777.67303    9.1960011    9.1960011    9.1960011    65.525621 
   17600    285.67339   -10511.683            0    -9660.996   -3589.2769    777.70391    9.1961228    9.1961228    9.1961228    79.568411 
   17700    299.02016   -10563.205            0   -9672.7741    8506.2552    778.02948    9.1974059    9.1974059    9.1974059    83.378224 
   17800    299.04011   -10570.934            0   -9680.4436    20040.067    779.04854    9.2014197    9.2014197    9.2014197    79.438378 
   17900    285.69496   -10534.814            0    -9684.063    20188.133    781.19799    9.2098744    9.2098744    9.2098744    58.190294 
   18000    284.45397   -10532.021            0   -9684.9653   -919.69523    784.58214    9.2231542    9.2231542    9.2231542    78.326425 
Loop time of 13.5335 on 16 procs for 1000 steps with 1000 atoms

Performance: 6.384 ns/day, 3.759 hours/ns, 73.891 timesteps/s
95.0% CPU use with 16 MPI tasks x no OpenMP threads

MPI task timing breakdown:
Section |  min time  |  avg time  |  max time  |%varavg| %total
---------------------------------------------------------------
Pair    | 1.8643     | 1.9888     | 2.0625     |   4.3 | 14.70
Neigh   | 0.74632    | 0.77921    | 0.80173    |   1.7 |  5.76
Comm    | 0.77893    | 0.86723    | 1.0065     |   7.7 |  6.41
Output  | 6.7677     | 6.9623     | 9.8273     |  28.0 | 51.44
Modify  | 0.06136    | 2.9268     | 3.1222     |  43.2 | 21.63
Other   |            | 0.00919    |            |       |  0.07

Nlocal:    62.5 ave 66 max 58 min
Histogram: 1 1 2 1 0 2 2 4 2 1
Nghost:    1861.5 ave 1877 max 1839 min
Histogram: 1 1 0 2 2 2 1 2 2 3
Neighs:    0 ave 0 max 0 min
Histogram: 16 0 0 0 0 0 0 0 0 0
FullNghs:  18814.1 ave 20056 max 17183 min
Histogram: 1 1 1 2 1 2 3 1 2 2

Total # of neighbors = 301026
Ave neighs/atom = 301.026
Neighbor list builds = 1000
Dangerous builds not checked
Setting up Verlet run ...
  Unit style    : real
  Current step  : 18000
  Time step     : 1
Per MPI rank memory allocation (min/avg/max) = 4.577 | 4.578 | 4.58 Mbytes
Step Temp E_pair E_mol TotEng Press Volume Lx Ly Lz S/CPU 
   18000    284.45397   -10532.021            0   -9684.9653   -919.69523    784.58214    9.2231542    9.2231542    9.2231542            0 
   18100    296.52015   -10566.977            0   -9683.9907   -2741.9663    788.05159    9.2367293    9.2367293    9.2367293    85.461975 
   18200    288.23771   -10539.294            0   -9680.9709   -29204.945    791.15913    9.2488545    9.2488545    9.2488545    70.592074 
   18300    288.53956   -10535.175            0   -9675.9535   -20828.785    793.28533    9.2571324    9.2571324    9.2571324    70.687011 
   18400    281.78594   -10508.598            0   -9669.4879   -7159.7578    794.01722    9.2599784    9.2599784    9.2599784    72.028739 
   18500    294.65269    -10537.36            0   -9659.9341     2378.229    794.01988    9.2599887    9.2599887    9.2599887    73.904305 
   18600     291.8345   -10518.349            0   -9649.3156   -339.98297    793.54055     9.258125     9.258125     9.258125    61.927064 
   18700    303.62276   -10542.074            0   -9637.9376   -6294.6448    792.80301    9.2552559    9.2552559    9.2552559    84.918231 
   18800    293.43216   -10500.301            0   -9626.5098   -19909.093    791.38349    9.2497287    9.2497287    9.2497287    76.260171 
   18900    294.55318   -10495.813            0    -9618.684   -8097.7721    789.28953    9.2415634    9.2415634    9.2415634    63.849855 
   19000    300.42502   -10505.331            0   -9610.7169    3337.4823    787.11151     9.233055     9.233055     9.233055    77.943237 
Loop time of 13.6987 on 16 procs for 1000 steps with 1000 atoms

Performance: 6.307 ns/day, 3.805 hours/ns, 73.000 timesteps/s
94.9% CPU use with 16 MPI tasks x no OpenMP threads

MPI task timing breakdown:
Section |  min time  |  avg time  |  max time  |%varavg| %total
---------------------------------------------------------------
Pair    | 1.8361     | 1.951      | 2.101      |   5.7 | 14.24
Neigh   | 0.74648    | 0.78313    | 0.82959    |   2.9 |  5.72
Comm    | 0.65325    | 0.84932    | 1.0009     |  11.3 |  6.20
Output  | 6.4157     | 6.6461     | 10.043     |  34.0 | 48.52
Modify  | 0.061331   | 3.4572     | 3.6935     |  47.2 | 25.24
Other   |            | 0.01191    |            |       |  0.09

Nlocal:    62.5 ave 65 max 57 min
Histogram: 1 0 0 3 0 1 2 1 5 3
Nghost:    1842.69 ave 1853 max 1830 min
Histogram: 1 1 1 1 3 2 1 3 1 2
Neighs:    0 ave 0 max 0 min
Histogram: 16 0 0 0 0 0 0 0 0 0
FullNghs:  18756.5 ave 19752 max 16927 min
Histogram: 1 0 0 3 0 2 2 1 5 2

Total # of neighbors = 300104
Ave neighs/atom = 300.104
Neighbor list builds = 1000
Dangerous builds not checked
Setting up Verlet run ...
  Unit style    : real
  Current step  : 19000
  Time step     : 1
Per MPI rank memory allocation (min/avg/max) = 4.577 | 4.578 | 4.58 Mbytes
Step Temp E_pair E_mol TotEng Press Volume Lx Ly Lz S/CPU 
   19000    300.42502   -10505.331            0   -9610.7169    3337.4823    787.11151     9.233055     9.233055     9.233055            0 
   19100    295.40038   -10485.113            0   -9605.4607    1592.4182    785.02067    9.2248723    9.2248723    9.2248723    83.777481 
   19200    293.83006   -10474.087            0    -9599.111    11759.096    783.10363    9.2173571    9.2173571    9.2173571    76.765977 
   19300    304.30038   -10500.361            0   -9594.2065    3922.2584    781.60197    9.2114617    9.2114617    9.2114617    67.029014 
   19400    292.25873   -10460.214            0   -9589.9171    14272.129    780.70375    9.2079317    9.2079317    9.2079317    77.755231 
   19500    299.16922   -10477.896            0   -9587.0208   -5402.4403    780.17604    9.2058565    9.2058565    9.2058565    86.735293 
   19600    302.29228   -10484.777            0   -9584.6026    10738.769     779.5828    9.2035226    9.2035226    9.2035226    58.242249 
   19700    309.86007   -10506.983            0   -9584.2726    1096.7027     779.4147    9.2028611    9.2028611    9.2028611    78.608058 
   19800     303.7167   -10488.193            0   -9583.7764    4692.4543    779.61528    9.2036504    9.2036504    9.2036504    98.311955 
   19900    290.61488   -10448.768            0   -9583.3662    665.28866    780.11654    9.2056225    9.2056225    9.2056225    69.928953 
   20000     298.3006   -10472.362            0   -9584.0735    15160.944      780.986    9.2090412    9.2090412    9.2090412    62.477571 
Loop time of 13.4641 on 16 procs for 1000 steps with 1000 atoms

Performance: 6.417 ns/day, 3.740 hours/ns, 74.272 timesteps/s
94.9% CPU use with 16 MPI tasks x no OpenMP threads

MPI task timing breakdown:
Section |  min time  |  avg time  |  max time  |%varavg| %total
---------------------------------------------------------------
Pair    | 1.8788     | 1.9713     | 2.1034     |   3.6 | 14.64
Neigh   | 0.74604    | 0.77524    | 0.81364    |   1.9 |  5.76
Comm    | 0.68914    | 0.85995    | 0.98195    |   7.0 |  6.39
Output  | 6.4118     | 6.626      | 9.7778     |  31.6 | 49.21
Modify  | 0.071276   | 3.2225     | 3.4369     |  45.3 | 23.93
Other   |            | 0.00914    |            |       |  0.07

Nlocal:    62.5 ave 69 max 56 min
Histogram: 2 0 2 3 1 1 3 1 2 1
Nghost:    1862.06 ave 1883 max 1837 min
Histogram: 1 1 1 3 2 2 0 1 3 2
Neighs:    0 ave 0 max 0 min
Histogram: 16 0 0 0 0 0 0 0 0 0
FullNghs:  18900.4 ave 20874 max 16987 min
Histogram: 2 1 2 2 1 2 1 2 2 1

Total # of neighbors = 302406
Ave neighs/atom = 302.406
Neighbor list builds = 1000
Dangerous builds not checked
Setting up Verlet run ...
  Unit style    : real
  Current step  : 20000
  Time step     : 1
Per MPI rank memory allocation (min/avg/max) = 4.577 | 4.578 | 4.58 Mbytes
Step Temp E_pair E_mol TotEng Press Volume Lx Ly Lz S/CPU 
   20000     298.3006   -10472.362            0   -9584.0735    15160.944      780.986    9.2090412    9.2090412    9.2090412            0 
   20100    307.22643    -10500.26            0   -9585.3924    -10997.54    782.30762    9.2142329    9.2142329    9.2142329    90.714302 
   20200    297.85216    -10473.73            0   -9586.7772    7909.4599    783.65857    9.2195338    9.2195338    9.2195338    85.422396 
   20300    298.20782   -10477.402            0   -9589.3903   -2862.9589    785.32375    9.2260594    9.2260594    9.2260594    53.307714 
   20400    300.75328   -10487.962            0   -9592.3697    1279.6997    787.04035    9.2327767    9.2327767    9.2327767    82.546387 
   20500    302.64522   -10498.553            0   -9597.3269   -14045.542     788.5497     9.238675     9.238675     9.238675     95.15651 
   20600    298.93505   -10493.646            0   -9603.4685   -5203.8292    789.68759    9.2431167    9.2431167    9.2431167    55.663602 
   20700    298.55525   -10501.164            0   -9612.1174    608.03952    790.37929    9.2458147    9.2458147    9.2458147    75.948581 
   20800    296.11998   -10502.514            0   -9620.7191   -1813.6964    790.50091    9.2462889    9.2462889    9.2462889    80.179225 
   20900    299.65136   -10523.609            0   -9631.2979   -8433.4947    790.27646    9.2454137    9.2454137    9.2454137    70.165943 
   21000    289.70209   -10503.232            0   -9640.5491   -14887.255    789.44135    9.2421559    9.2421559    9.2421559    70.888017 
Loop time of 13.6075 on 16 procs for 1000 steps with 1000 atoms

Performance: 6.349 ns/day, 3.780 hours/ns, 73.489 timesteps/s
94.9% CPU use with 16 MPI tasks x no OpenMP threads

MPI task timing breakdown:
Section |  min time  |  avg time  |  max time  |%varavg| %total
---------------------------------------------------------------
Pair    | 1.8666     | 1.9587     | 2.0796     |   4.4 | 14.39
Neigh   | 0.75221    | 0.7778     | 0.80882    |   2.1 |  5.72
Comm    | 0.68197    | 0.83324    | 0.95135    |   8.6 |  6.12
Output  | 6.6665     | 6.8802     | 9.9827     |  30.5 | 50.56
Modify  | 0.047603   | 3.1485     | 3.3625     |  45.1 | 23.14
Other   |            | 0.009136   |            |       |  0.07

Nlocal:    62.5 ave 67 max 59 min
Histogram: 1 4 1 2 0 2 3 1 1 1
Nghost:    1850.62 ave 1867 max 1827 min
Histogram: 1 0 2 1 1 2 3 0 4 2
Neighs:    0 ave 0 max 0 min
Histogram: 16 0 0 0 0 0 0 0 0 0
FullNghs:  18696.6 ave 20242 max 17500 min
Histogram: 2 3 1 1 1 3 2 1 1 1

Total # of neighbors = 299146
Ave neighs/atom = 299.146
Neighbor list builds = 1000
Dangerous builds not checked
Setting up Verlet run ...
  Unit style    : real
  Current step  : 21000
  Time step     : 1
Per MPI rank memory allocation (min/avg/max) = 4.577 | 4.578 | 4.58 Mbytes
Step Temp E_pair E_mol TotEng Press Volume Lx Ly Lz S/CPU 
   21000    289.70209   -10503.232            0   -9640.5491   -14887.255    789.44135    9.2421559    9.2421559    9.2421559            0 
   21100    297.93407   -10536.976            0   -9649.7794   -3360.1136    787.92262    9.2362254    9.2362254    9.2362254      83.2071 
   21200    279.48004   -10486.894            0   -9654.6506    4746.4778    785.82552    9.2280239    9.2280239    9.2280239    66.209647 
   21300    294.84746   -10537.457            0   -9659.4515   -16675.574    783.23519    9.2178732    9.2178732    9.2178732     60.56238 
   21400    287.21159   -10516.167            0   -9660.9003   -1719.2879    780.41397    9.2067923    9.2067923    9.2067923    74.893557 
   21500    292.23032   -10530.702            0   -9660.4898    13375.241    777.97295    9.1971831    9.1971831    9.1971831      86.2143 
   21600    298.85542   -10550.042            0   -9660.1017    14668.761    776.24041    9.1903507    9.1903507    9.1903507    66.193342 
   21700    298.68461   -10547.387            0   -9657.9554    16805.939    775.37254    9.1869243    9.1869243    9.1869243    68.856316 
   21800    309.00326   -10576.515            0   -9656.3558    7288.3499    775.49048    9.1873901    9.1873901    9.1873901    83.868213 
   21900    293.97018   -10527.027            0   -9651.6342     10780.05    776.23704    9.1903374    9.1903374    9.1903374    65.631811 
   22000    303.84812   -10551.183            0   -9646.3752    15435.134    777.45524    9.1951425    9.1951425    9.1951425    69.121634 
Loop time of 13.9843 on 16 procs for 1000 steps with 1000 atoms

Performance: 6.178 ns/day, 3.885 hours/ns, 71.509 timesteps/s
94.9% CPU use with 16 MPI tasks x no OpenMP threads

MPI task timing breakdown:
Section |  min time  |  avg time  |  max time  |%varavg| %total
---------------------------------------------------------------
Pair    | 1.9455     | 2.0316     | 2.1563     |   4.3 | 14.53
Neigh   | 0.77221    | 0.79671    | 0.84161    |   2.3 |  5.70
Comm    | 0.67101    | 0.82885    | 0.93913    |   8.8 |  5.93
Output  | 6.7557     | 6.9784     | 10.257     |  32.0 | 49.90
Modify  | 0.060119   | 3.3394     | 3.5622     |  46.3 | 23.88
Other   |            | 0.009294   |            |       |  0.07

Nlocal:    62.5 ave 67 max 58 min
Histogram: 1 1 2 2 2 2 2 2 1 1
Nghost:    1872.44 ave 1898 max 1853 min
Histogram: 1 0 4 4 0 3 2 1 0 1
Neighs:    0 ave 0 max 0 min
Histogram: 16 0 0 0 0 0 0 0 0 0
FullNghs:  18984.8 ave 20505 max 17543 min
Histogram: 2 0 4 2 1 1 1 3 1 1

Total # of neighbors = 303756
Ave neighs/atom = 303.756
Neighbor list builds = 1000
Dangerous builds not checked
Setting up Verlet run ...
  Unit style    : real
  Current step  : 22000
  Time step     : 1
Per MPI rank memory allocation (min/avg/max) = 4.577 | 4.578 | 4.58 Mbytes
Step Temp E_pair E_mol TotEng Press Volume Lx Ly Lz S/CPU 
   22000    303.84812   -10551.183            0   -9646.3752    15435.134    777.45524    9.1951425    9.1951425    9.1951425            0 
   22100    295.24113   -10517.858            0   -9638.6804    9484.2741    779.16748    9.2018879    9.2018879    9.2018879    77.156675 
   22200    316.33068   -10570.754            0   -9628.7752   -818.01755    781.31618    9.2103388    9.2103388    9.2103388    76.198895 
   22300    295.92184   -10496.716            0   -9615.5113   -217.59788    783.43983     9.218676     9.218676     9.218676    62.356239 
   22400    298.77745   -10491.458            0     -9601.75   -15441.614    785.37905    9.2262759    9.2262759    9.2262759    76.869105 
   22500    294.39924   -10466.109            0   -9589.4387   -10049.513    786.67031    9.2313295    9.2313295    9.2313295    79.405233 
   22600    309.49511   -10501.735            0   -9580.1109   -4552.4873    787.28082    9.2337169    9.2337169    9.2337169    61.555242 
   22700     313.4065   -10507.436            0   -9574.1648   -3382.6721    787.37857    9.2340991    9.2340991    9.2340991    73.212882 
   22800    302.74284   -10469.395            0   -9567.8789   -15188.891    787.28355    9.2337276    9.2337276    9.2337276    75.581213 
   22900    303.85502   -10470.747            0   -9565.9184   -4277.6652    787.04895    9.2328103    9.2328103    9.2328103    64.711806 
   23000    321.11574   -10521.529            0    -9565.301     10594.81    786.78871    9.2317926    9.2317926    9.2317926    72.078327 
Loop time of 14.0186 on 16 procs for 1000 steps with 1000 atoms

Performance: 6.163 ns/day, 3.894 hours/ns, 71.334 timesteps/s
94.9% CPU use with 16 MPI tasks x no OpenMP threads

MPI task timing breakdown:
Section |  min time  |  avg time  |  max time  |%varavg| %total
---------------------------------------------------------------
Pair    | 1.8517     | 1.9638     | 2.1099     |   4.6 | 14.01
Neigh   | 0.73273    | 0.77971    | 0.84253    |   2.8 |  5.56
Comm    | 0.67303    | 0.88164    | 1.0407     |   9.5 |  6.29
Output  | 6.7589     | 6.9856     | 10.33      |  32.7 | 49.83
Modify  | 0.053925   | 3.3987     | 3.6257     |  46.8 | 24.24
Other   |            | 0.009185   |            |       |  0.07

Nlocal:    62.5 ave 67 max 56 min
Histogram: 1 2 1 1 0 0 3 3 3 2
Nghost:    1862 ave 1868 max 1847 min
Histogram: 1 0 0 2 1 0 1 3 1 7
Neighs:    0 ave 0 max 0 min
Histogram: 16 0 0 0 0 0 0 0 0 0
FullNghs:  18765.1 ave 20287 max 16872 min
Histogram: 2 0 2 1 0 3 2 4 1 1

Total # of neighbors = 300242
Ave neighs/atom = 300.242
Neighbor list builds = 1000
Dangerous builds not checked
Setting up Verlet run ...
  Unit style    : real
  Current step  : 23000
  Time step     : 1
Per MPI rank memory allocation (min/avg/max) = 4.577 | 4.578 | 4.58 Mbytes
Step Temp E_pair E_mol TotEng Press Volume Lx Ly Lz S/CPU 
   23000    321.11574   -10521.529            0    -9565.301     10594.81    786.78871    9.2317926    9.2317926    9.2317926            0 
   23100    306.33775   -10478.547            0    -9566.326   -14358.749    786.85896    9.2320674    9.2320674    9.2320674    90.715227 
   23200    315.00317   -10507.873            0   -9569.8472   -14523.716    786.49243    9.2306337    9.2306337    9.2306337    63.652948 
   23300    305.93739   -10485.381            0   -9574.3515   -12101.265    785.50694    9.2267767    9.2267767    9.2267767    65.962941 
   23400    300.78195   -10475.272            0   -9579.5952    17848.012    784.31263    9.2220981    9.2220981    9.2220981    76.478462 
   23500    297.60338   -10473.214            0   -9587.0024    5472.2046    783.79267    9.2200597    9.2200597    9.2200597    56.347545 
   23600    299.34152   -10486.073            0   -9594.6848   -2874.0459    783.27209     9.218018     9.218018     9.218018    75.472035 
   23700    297.14545   -10488.405            0   -9603.5568   -7547.6928    782.93736    9.2167047    9.2167047    9.2167047    74.334793 
   23800    297.21392   -10497.864            0   -9612.8115   -670.62507    782.82962    9.2162819    9.2162819    9.2162819    95.654064 
   23900    299.97927   -10513.923            0   -9620.6358   -7226.1986    782.61351    9.2154337    9.2154337    9.2154337    64.542139 
   24000    298.61854   -10516.747            0   -9627.5122   -5139.1807    782.34523    9.2143806    9.2143806    9.2143806    69.746652 
Loop time of 13.9705 on 16 procs for 1000 steps with 1000 atoms

Performance: 6.184 ns/day, 3.881 hours/ns, 71.579 timesteps/s
94.9% CPU use with 16 MPI tasks x no OpenMP threads

MPI task timing breakdown:
Section |  min time  |  avg time  |  max time  |%varavg| %total
---------------------------------------------------------------
Pair    | 1.8646     | 1.9661     | 2.0758     |   5.0 | 14.07
Neigh   | 0.74035    | 0.77872    | 0.81901    |   2.4 |  5.57
Comm    | 0.69245    | 0.8439     | 0.98382    |   9.8 |  6.04
Output  | 6.9422     | 7.1561     | 10.308     |  30.4 | 51.22
Modify  | 0.065627   | 3.2165     | 3.4301     |  45.4 | 23.02
Other   |            | 0.009175   |            |       |  0.07

Nlocal:    62.5 ave 66 max 54 min
Histogram: 1 0 0 0 0 4 0 5 2 4
Nghost:    1846.56 ave 1870 max 1832 min
Histogram: 1 4 1 2 2 5 0 0 0 1
Neighs:    0 ave 0 max 0 min
Histogram: 16 0 0 0 0 0 0 0 0 0
FullNghs:  18846.5 ave 19868 max 16264 min
Histogram: 1 0 0 0 3 0 1 4 3 4

Total # of neighbors = 301544
Ave neighs/atom = 301.544
Neighbor list builds = 1000
Dangerous builds not checked
Setting up Verlet run ...
  Unit style    : real
  Current step  : 24000
  Time step     : 1
Per MPI rank memory allocation (min/avg/max) = 4.577 | 4.578 | 4.58 Mbytes
Step Temp E_pair E_mol TotEng Press Volume Lx Ly Lz S/CPU 
   24000    298.61854   -10516.747            0   -9627.5122   -5139.1807    782.34523    9.2143806    9.2143806    9.2143806            0 
   24100    295.49486   -10514.116            0   -9634.1833    1456.6848    782.32172    9.2142883    9.2142883    9.2142883    96.854836 
   24200    301.15266   -10536.642            0   -9639.8604    2234.7825    782.31138    9.2142477    9.2142477    9.2142477    59.929966 
   24300    293.21306   -10517.586            0   -9644.4471    17331.278    782.56449    9.2152413    9.2152413    9.2152413    71.405372 
   24400    294.98986   -10526.804            0    -9648.375    5702.4589    783.38378    9.2184561    9.2184561    9.2184561     76.44683 
   24500    289.19794   -10510.569            0    -9649.387    -12893.27     784.2618    9.2218988    9.2218988    9.2218988    69.186446 
   24600    297.54326   -10537.134            0   -9651.1013   -8577.3724    784.90767    9.2244297    9.2244297    9.2244297    72.184383 
   24700    292.29164   -10520.279            0   -9649.8843   -996.58726    785.36978    9.2262396    9.2262396    9.2262396    79.356998 
   24800    299.66448   -10541.545            0    -9649.195   -3305.6807    785.80911    9.2279596    9.2279596    9.2279596    65.113162 
   24900    298.80415   -10536.773            0   -9646.9851   -5001.4762    785.90523    9.2283359    9.2283359    9.2283359    80.085518 
   25000    286.90609   -10498.673            0   -9644.3159   -3841.7412    785.30107    9.2259705    9.2259705    9.2259705    70.865979 
Loop time of 13.6961 on 16 procs for 1000 steps with 1000 atoms

Performance: 6.308 ns/day, 3.804 hours/ns, 73.014 timesteps/s
94.9% CPU use with 16 MPI tasks x no OpenMP threads

MPI task timing breakdown:
Section |  min time  |  avg time  |  max time  |%varavg| %total
---------------------------------------------------------------
Pair    | 1.8723     | 1.9917     | 2.1108     |   4.6 | 14.54
Neigh   | 0.75449    | 0.78679    | 0.83476    |   2.3 |  5.74
Comm    | 0.66216    | 0.8315     | 0.98029    |   9.3 |  6.07
Output  | 6.522      | 6.7428     | 9.9996     |  32.4 | 49.23
Modify  | 0.079366   | 3.3341     | 3.5578     |  46.0 | 24.34
Other   |            | 0.009208   |            |       |  0.07

Nlocal:    62.5 ave 67 max 54 min
Histogram: 1 0 0 2 0 3 2 4 1 3
Nghost:    1853.44 ave 1875 max 1831 min
Histogram: 2 0 3 1 1 3 2 0 2 2
Neighs:    0 ave 0 max 0 min
Histogram: 16 0 0 0 0 0 0 0 0 0
FullNghs:  18798.8 ave 20231 max 16176 min
Histogram: 1 0 1 1 0 3 2 4 1 3

Total # of neighbors = 300780
Ave neighs/atom = 300.78
Neighbor list builds = 1000
Dangerous builds not checked
Setting up Verlet run ...
  Unit style    : real
  Current step  : 25000
  Time step     : 1
Per MPI rank memory allocation (min/avg/max) = 4.577 | 4.578 | 4.58 Mbytes
Step Temp E_pair E_mol TotEng Press Volume Lx Ly Lz S/CPU 
   25000    286.90609   -10498.673            0   -9644.3159   -3841.7412    785.30107    9.2259705    9.2259705    9.2259705            0 
   25100    298.55427   -10530.825            0   -9641.7811     1102.558     784.2151    9.2217158    9.2217158    9.2217158    61.900281 
   25200    292.36795   -10507.711            0   -9637.0888     12536.47    782.85088    9.2163653    9.2163653    9.2163653    67.748788 
   25300    291.84131   -10500.739            0   -9631.6854    7611.4996    781.83133    9.2123626    9.2123626    9.2123626    78.248601 
   25400     299.3488   -10518.302            0   -9626.8926    6919.9521    781.11703    9.2095562    9.2095562    9.2095562    71.162947 
   25500    299.69539   -10515.013            0   -9622.5715   -17175.169    780.33682    9.2064889    9.2064889    9.2064889    80.314909 
   25600    305.04901   -10525.972            0   -9617.5883   -3693.3099    778.97683    9.2011374    9.2011374    9.2011374    79.303226 
   25700    303.24591    -10516.26            0   -9613.2453    -207.6755    777.44813    9.1951145    9.1951145    9.1951145    80.941462 
   25800    313.62444   -10543.971            0   -9610.0509    12040.793    775.99247    9.1893721    9.1893721    9.1893721    56.141295 
   25900     307.4058   -10521.903            0   -9606.5008      21759.5    775.26385     9.186495     9.186495     9.186495    84.928281 
   26000    305.41631     -10514.3            0   -9604.8224    1855.0293    775.72728    9.1883251    9.1883251    9.1883251    69.832332 
Loop time of 13.907 on 16 procs for 1000 steps with 1000 atoms

Performance: 6.213 ns/day, 3.863 hours/ns, 71.906 timesteps/s
94.9% CPU use with 16 MPI tasks x no OpenMP threads

MPI task timing breakdown:
Section |  min time  |  avg time  |  max time  |%varavg| %total
---------------------------------------------------------------
Pair    | 1.8992     | 2.0185     | 2.1691     |   5.9 | 14.51
Neigh   | 0.75463    | 0.7911     | 0.8251     |   2.5 |  5.69
Comm    | 0.64908    | 0.83381    | 0.98166    |  11.5 |  6.00
Output  | 6.7019     | 6.9269     | 10.211     |  32.2 | 49.81
Modify  | 0.04228    | 3.3275     | 3.5525     |  46.5 | 23.93
Other   |            | 0.009242   |            |       |  0.07

Nlocal:    62.5 ave 69 max 57 min
Histogram: 2 1 2 1 1 4 3 1 0 1
Nghost:    1873.94 ave 1893 max 1852 min
Histogram: 2 0 1 2 3 0 3 2 2 1
Neighs:    0 ave 0 max 0 min
Histogram: 16 0 0 0 0 0 0 0 0 0
FullNghs:  19035.2 ave 21144 max 17288 min
Histogram: 2 1 3 0 4 0 3 2 0 1

Total # of neighbors = 304564
Ave neighs/atom = 304.564
Neighbor list builds = 1000
Dangerous builds not checked
Setting up Verlet run ...
  Unit style    : real
  Current step  : 26000
  Time step     : 1
Per MPI rank memory allocation (min/avg/max) = 4.577 | 4.578 | 4.58 Mbytes
Step Temp E_pair E_mol TotEng Press Volume Lx Ly Lz S/CPU 
   26000    305.41631     -10514.3            0   -9604.8224    1855.0293    775.72728    9.1883251    9.1883251    9.1883251            0 
   26100    293.36291    -10477.14            0   -9603.5549     1361.596    776.87893    9.1928699    9.1928699    9.1928699    62.130024 
   26200    305.38655   -10513.912            0   -9604.5231   -3001.9698    778.62512    9.1997523    9.1997523    9.1997523    75.891066 
   26300    298.05095   -10492.867            0   -9605.3217    7791.4758     780.7596    9.2081513    9.2081513    9.2081513    77.006568 
   26400    302.81224       -10510            0   -9608.2764     9616.992    783.06429    9.2172027    9.2172027    9.2172027    65.714512 
   26500    301.73574   -10510.684            0   -9612.1666    -3639.753     785.6116    9.2271864    9.2271864    9.2271864    78.421633 
   26600     288.7727   -10476.391            0   -9616.4749   -12516.811    787.65096    9.2351638    9.2351638    9.2351638    78.812892 
   26700      305.148   -10532.405            0    -9623.726   -18371.331    788.74366    9.2394324    9.2394324    9.2394324    60.356671 
   26800    303.02106   -10533.688            0   -9631.3432   -3159.8332    789.07448     9.240724     9.240724     9.240724     90.54533 
   26900    288.86678    -10500.12            0    -9639.924   -31732.712    788.44914    9.2382823    9.2382823    9.2382823     76.26309 
   27000    284.58581    -10497.08            0    -9649.632   -936.10166    786.38572    9.2302162    9.2302162    9.2302162    61.021441 
Loop time of 14.0028 on 16 procs for 1000 steps with 1000 atoms

Performance: 6.170 ns/day, 3.890 hours/ns, 71.414 timesteps/s
94.9% CPU use with 16 MPI tasks x no OpenMP threads

MPI task timing breakdown:
Section |  min time  |  avg time  |  max time  |%varavg| %total
---------------------------------------------------------------
Pair    | 1.8846     | 1.9796     | 2.1235     |   5.3 | 14.14
Neigh   | 0.74338    | 0.78147    | 0.81826    |   2.6 |  5.58
Comm    | 0.68945    | 0.86399    | 0.99542    |  10.2 |  6.17
Output  | 6.9106     | 7.1264     | 10.308     |  30.8 | 50.89
Modify  | 0.054184   | 3.2422     | 3.459      |  45.7 | 23.15
Other   |            | 0.009166   |            |       |  0.07

Nlocal:    62.5 ave 67 max 58 min
Histogram: 2 2 0 2 1 2 3 1 2 1
Nghost:    1848.5 ave 1879 max 1829 min
Histogram: 2 3 3 0 2 2 1 2 0 1
Neighs:    0 ave 0 max 0 min
Histogram: 16 0 0 0 0 0 0 0 0 0
FullNghs:  18773 ave 19991 max 17169 min
Histogram: 2 2 0 1 1 1 2 2 1 4

Total # of neighbors = 300368
Ave neighs/atom = 300.368
Neighbor list builds = 1000
Dangerous builds not checked
Setting up Verlet run ...
  Unit style    : real
  Current step  : 27000
  Time step     : 1
Per MPI rank memory allocation (min/avg/max) = 4.577 | 4.578 | 4.58 Mbytes
Step Temp E_pair E_mol TotEng Press Volume Lx Ly Lz S/CPU 
   27000    284.58581    -10497.08            0    -9649.632   -936.10166    786.38572    9.2302162    9.2302162    9.2302162            0 
   27100     281.4435   -10494.101            0   -9656.0104   -1804.8838    783.80267    9.2200989    9.2200989    9.2200989    76.726401 
   27200    289.87412    -10525.31            0   -9662.1146    7194.5071    781.44079    9.2108284    9.2108284    9.2108284    74.373407 
   27300     294.9831   -10544.726            0   -9666.3165    7476.2141    779.60715    9.2036184    9.2036184    9.2036184    90.313105 
   27400    296.07924   -10549.823            0   -9668.1492     10908.08    778.22346    9.1981701    9.1981701    9.1981701    59.403949 
   27500    305.61125   -10580.127            0   -9670.0688   -8049.0463    777.33303    9.1946607    9.1946607    9.1946607    74.566188 
   27600    293.98963   -10545.101            0     -9669.65    6014.7909    776.67129    9.1920508    9.1920508    9.1920508    63.525793 
   27700    290.02848   -10531.701            0   -9668.0452    29296.725    776.32608    9.1906887    9.1906887    9.1906887    70.241239 
   27800    292.43633   -10537.016            0   -9666.1907   -321.76697    776.72365    9.1922574    9.1922574    9.1922574     90.19265 
   27900    297.42426   -10547.662            0   -9661.9829    5697.2072    777.49186    9.1952869    9.1952869    9.1952869    71.812399 
   28000    298.33857   -10544.035            0   -9655.6339    7964.7727    778.57501     9.199555     9.199555     9.199555    62.459921 
Loop time of 13.8798 on 16 procs for 1000 steps with 1000 atoms

Performance: 6.225 ns/day, 3.855 hours/ns, 72.047 timesteps/s
[...]
 1187700    293.38875   -11295.591            0    -10421.93   -6481.3985     770.1448     9.166231     9.166231     9.166231    69.982157 
 1187800    297.91243   -11306.733            0   -10419.601   -12364.992    772.00102    9.1735893    9.1735893    9.1735893     78.41672 
 1187900    308.39305   -11336.727            0   -10418.386   -11258.673    772.79106    9.1767175    9.1767175    9.1767175    90.946451 
 1188000    301.80618   -11315.406            0   -10416.679    -12357.38    772.37052    9.1750526    9.1750526    9.1750526    67.644363 
 1188100    299.54896    -11307.26            0   -10415.254   -11507.943    770.80559    9.1688518    9.1688518    9.1688518    69.926535 
 1188200    307.31679   -11330.924            0   -10415.787   -11387.032    768.59198    9.1600663    9.1600663    9.1600663    80.982833 
 1188300    299.78696   -11306.908            0   -10414.194    9768.0983    766.13041    9.1502769    9.1502769    9.1502769    70.208327 
 1188400     293.3172   -11287.031            0   -10413.582    22018.586    764.03285    9.1419185    9.1419185    9.1419185    98.151875 
 1188500    305.24441    -11321.89            0   -10412.924    23673.999    762.94451    9.1375756    9.1375756    9.1375756    87.579549 
 1188600    315.27437   -11354.793            0    -10415.96    19521.908    763.10026    9.1381974    9.1381974    9.1381974    74.353001 
 1188700    299.53225   -11309.453            0   -10417.497    12396.074     764.4064    9.1434081    9.1434081    9.1434081    72.039015 
 1188800    295.08465   -11299.493            0   -10420.781    4832.5576    766.63751    9.1522952    9.1522952    9.1522952    86.961951 
 1188900    296.03983   -11305.892            0   -10424.335   -4487.5131    769.19031    9.1624426    9.1624426    9.1624426    75.343366 
 1189000    285.82122   -11280.688            0   -10429.561   -11546.202    771.27098    9.1706967    9.1706967    9.1706967     76.45285 
 1189100     290.3412   -11300.169            0   -10435.582    -13956.83    772.16649    9.1742446    9.1742446    9.1742446    67.758656 
 1189200    301.62329   -11342.015            0   -10443.832   -17286.083    771.84562    9.1729737    9.1729737    9.1729737    61.202132 
 1189300    288.18996   -11307.946            0   -10449.765    -14027.43    770.75721    9.1686599    9.1686599    9.1686599    78.893256 
 1189400    304.72084   -11366.088            0   -10458.681   -7221.1449    769.00697    9.1617146    9.1617146    9.1617146    68.076227 
 1189500    292.50512   -11337.349            0   -10466.319    2877.2143    766.98324    9.1536708    9.1536708    9.1536708    62.344289 
 1189600    283.93509   -11320.818            0   -10475.308    13054.852    765.23381    9.1467059    9.1467059    9.1467059      78.9477 
 1189700    284.28147   -11330.906            0   -10484.365    8556.5996    764.32361     9.143078     9.143078     9.143078    66.578034 
 1189800    290.61804   -11357.279            0   -10491.869    7187.4622    764.21485    9.1426443    9.1426443    9.1426443     61.95737 
 1189900    291.52341   -11365.668            0   -10497.561    9913.7243    764.81872    9.1450518    9.1450518    9.1450518    75.868124 
 1190000    291.66193   -11370.387            0   -10501.867    213.11303    765.90747    9.1493892    9.1493892    9.1493892    62.964716 
 1190100    290.97789   -11369.873            0    -10503.39    1636.8957    767.21598    9.1545966    9.1545966    9.1545966    67.568713 
 1190200    282.33904   -11343.496            0   -10502.739   -13195.701    768.39856    9.1592978    9.1592978    9.1592978    74.301349 
 1190300    292.00003   -11369.182            0   -10499.656    -10731.22    769.03372    9.1618208    9.1618208    9.1618208    59.899643 
 1190400    295.75503   -11372.402            0   -10491.694   -11361.137    769.05849    9.1619192    9.1619192    9.1619192    73.642044 
 1190500    292.62093   -11350.998            0   -10479.622   -10449.452    768.46303     9.159554     9.159554     9.159554    74.878665 
 1190600    289.63374    -11323.96            0    -10461.48   -995.26992    767.54715    9.1559136    9.1559136    9.1559136    59.507828 
 1190700    305.03975   -11352.455            0   -10444.099    -1608.401    766.85005     9.153141     9.153141     9.153141    77.775841 
 1190800    301.62725     -11329.7            0   -10431.505    12653.338    766.46104     9.151593     9.151593     9.151593    75.538834 
 1190900    303.68781    -11327.49            0    -10423.16   -486.82657    766.65547    9.1523667    9.1523667    9.1523667    59.839122 
 1191000     301.2552   -11314.816            0    -10417.73   -2537.7682    767.23459    9.1546706    9.1546706    9.1546706    67.839561 
 1191100    309.24438     -11335.8            0   -10414.923   -8933.1893     767.9726     9.157605     9.157605     9.157605    66.044042 
 1191200    297.94774   -11299.006            0   -10411.769   -2138.1617    768.58633    9.1600438    9.1600438    9.1600438    70.770991 
 1191300    296.86959   -11294.018            0   -10409.991   -5874.9933      768.945    9.1614685    9.1614685    9.1614685    74.034812 
 1191400    298.02399   -11296.063            0   -10408.598   -210.19562    768.97951    9.1616055    9.1616055    9.1616055    58.523363 
 1191500    295.53349   -11288.622            0   -10408.574   -1173.0762     768.9562     9.161513     9.161513     9.161513    71.857384 
 1191600    293.71402   -11282.762            0   -10408.131   -370.59782    768.87336     9.161184     9.161184     9.161184    77.795566 
 1191700    298.37134   -11297.833            0   -10409.334    9668.6292    768.87132    9.1611759    9.1611759    9.1611759    49.532656 
 1191800    301.29096   -11308.605            0   -10411.412    4635.4244    769.09212    9.1620527    9.1620527    9.1620527    68.485952 
 1191900    299.16591   -11305.239            0   -10414.374   -3918.3599    769.33229    9.1630063    9.1630063    9.1630063    57.895838 
 1192000    301.55287   -11317.145            0   -10419.172    3267.3018    769.34923    9.1630736    9.1630736    9.1630736    79.045267 
 1192100    298.67144   -11312.338            0   -10422.946   -6214.2674    769.15459    9.1623008    9.1623008    9.1623008     67.93118 
 1192200    295.40698   -11307.162            0    -10427.49    6494.2731    768.63174    9.1602242    9.1602242    9.1602242    63.738946 
 1192300    296.98723   -11319.615            0   -10435.237    1460.5813    767.86672    9.1571842    9.1571842    9.1571842      80.0181 
 1192400    293.70757   -11315.633            0   -10441.022   -2739.0281    766.97484    9.1536374    9.1536374    9.1536374    95.461355 
 1192500    297.86082   -11337.464            0   -10450.486    7388.3208    765.96853    9.1496323    9.1496323    9.1496323     60.24107 
 1192600    292.27092   -11328.968            0   -10458.636    7201.7245    765.27383    9.1468654    9.1468654    9.1468654    85.358781 
 1192700    294.65874   -11344.659            0   -10467.216    3849.3502    765.19399    9.1465473    9.1465473    9.1465473    78.224723 
 1192800     290.9953   -11341.271            0   -10474.737    5552.8456    765.50269    9.1477771    9.1477771    9.1477771     65.25925 
 1192900    296.15835   -11364.774            0   -10482.865   -4499.3395    766.16128    9.1503998    9.1503998    9.1503998    85.531812 
 1193000    294.71724   -11365.817            0     -10488.2     2078.393     766.8533    9.1531539    9.1531539    9.1531539    71.774349 
 1193100    288.24023   -11351.196            0   -10492.866    2073.7116    767.62099    9.1562073    9.1562073    9.1562073    63.006855 
 1193200    289.77639    -11358.17            0   -10495.266   -6362.2033    768.25983    9.1587466    9.1587466    9.1587466    77.836827 
 1193300    279.96089   -11329.625            0   -10495.949   -4981.4471    768.53591    9.1598435    9.1598435    9.1598435    82.999515 
 1193400    287.22653   -11349.118            0   -10493.806   -2571.8443    768.24011    9.1586682    9.1586682    9.1586682    60.678515 
 1193500     291.4854   -11357.026            0   -10489.032   -15001.979    767.35004    9.1551298    9.1551298    9.1551298    76.253774 
 1193600    295.02254   -11356.694            0   -10478.167    5256.5473    766.09661    9.1501423    9.1501423    9.1501423    73.121147 
 1193700    292.29483   -11332.109            0   -10461.705    7570.1295    765.09347    9.1461467    9.1461467    9.1461467    68.252013 
 1193800    294.36058   -11319.098            0   -10442.543    3013.7294    764.50194     9.143789     9.143789     9.143789    75.838822 
 1193900     299.6786   -11319.717            0   -10427.325    8158.9559    764.40049    9.1433846    9.1433846    9.1433846    64.833762 
 1194000    302.63992   -11317.706            0   -10416.496    7625.1017    765.07419    9.1460699    9.1460699    9.1460699    61.958521 
 1194100     292.0569   -11277.891            0   -10408.195    2697.5418    766.22571    9.1506562    9.1506562    9.1506562    65.680113 
 1194200    299.45935    -11296.73            0   -10404.991    1870.7115     767.7667    9.1567866    9.1567866    9.1567866    55.929377 
 1194300    306.75868   -11316.285            0    -10402.81   -2552.8135    769.56963    9.1639485    9.1639485    9.1639485    68.614853 
 1194400    299.94395   -11294.001            0   -10400.819   -8080.8096     771.2281    9.1705267    9.1705267    9.1705267    84.824087 
 1194500    312.68131   -11333.156            0   -10402.045   -20313.055    772.09944    9.1739791    9.1739791    9.1739791    60.149478 
 1194600    296.09088   -11282.089            0   -10400.381   -10720.312    771.95389    9.1734026    9.1734026    9.1734026    75.444938 
 1194700    305.76092   -11313.295            0   -10402.791   -13739.273    770.99565    9.1696053    9.1696053    9.1696053     78.73431 
 1194800    304.03524    -11310.35            0   -10404.985   -6444.2501    769.26224    9.1627282    9.1627282    9.1627282    57.900162 
 1194900    293.76661   -11282.999            0   -10408.213    9898.8156    767.29137    9.1548965    9.1548965    9.1548965    86.530036 
 1195000    296.88218   -11297.043            0   -10412.978   -3279.2203    765.70006    9.1485632    9.1485632    9.1485632    57.220013 
 1195100    303.24902   -11322.334            0    -10419.31     11238.75    764.73197     9.144706     9.144706     9.144706    63.765159 
 1195200    310.43807   -11350.683            0   -10426.251    10275.895    764.66486    9.1444385    9.1444385    9.1444385    96.776512 
 1195300    307.30725   -11350.177            0   -10435.068    7582.6217    765.34225     9.147138     9.147138     9.147138    72.934198 
 1195400    293.72283   -11317.499            0   -10442.843   -1947.7493    766.60119    9.1521507    9.1521507    9.1521507    78.105655 
 1195500    300.19681   -11345.706            0   -10451.771   -6650.8774    767.82562    9.1570208    9.1570208    9.1570208    93.548665 
 1195600    297.75085   -11345.886            0   -10459.235   -11053.483     768.7724     9.160783     9.160783     9.160783    95.882443 
 1195700    296.93684   -11351.724            0   -10467.497   -8502.8647    769.14997    9.1622825    9.1622825    9.1622825    63.347591 
 1195800    287.78358   -11328.881            0    -10471.91   -4165.2279    768.76195    9.1607415    9.1607415    9.1607415    61.337721 
 1195900    295.57812    -11356.85            0   -10476.669   -5257.7731    767.88216    9.1572455    9.1572455    9.1572455    73.238293 
 1196000     299.4067   -11371.945            0   -10480.363   -4079.0481    766.77836    9.1528557    9.1528557    9.1528557    79.082395 
 1196100    301.30214   -11379.033            0   -10481.806    10624.178    765.67713    9.1484719    9.1484719    9.1484719    86.235431 
 1196200    292.07366   -11352.052            0   -10482.307    3198.7373    765.04555    9.1459558    9.1459558    9.1459558    85.625225 
 1196300    299.64933   -11372.742            0   -10480.437    5974.7563    764.92436    9.1454728    9.1454728    9.1454728    60.037837 
 1196400    284.03548    -11319.32            0   -10473.511    1640.2867    765.17501    9.1464716    9.1464716    9.1464716    85.553495 
 1196500     301.6176   -11361.668            0   -10463.502   -5737.2172    765.86919    9.1492368    9.1492368    9.1492368    77.920687 
 1196600    291.78109   -11313.991            0   -10445.116    5620.0926    766.69808    9.1525363    9.1525363    9.1525363    58.055358 
 1196700    307.82661   -11343.639            0   -10426.984    3173.7152     767.5741    9.1560208    9.1560208    9.1560208    69.750073 
 1196800    307.41572   -11326.778            0   -10411.347   -4571.4027    768.41624    9.1593681    9.1593681    9.1593681    60.988056 
 1196900    298.97078   -11289.017            0   -10398.733   -1393.1193    769.00254     9.161697     9.161697     9.161697    82.864045 
 1197000    307.53386    -11308.95            0   -10393.166   -3222.7022    769.51733    9.1637409    9.1637409    9.1637409     78.50354 
 1197100    303.31019   -11290.657            0   -10387.451   -3756.7558    769.75282    9.1646756    9.1646756    9.1646756    56.193087 
 1197200    301.53255   -11281.919            0   -10384.006   -2228.2281    769.68312     9.164399     9.164399     9.164399    85.692335 
 1197300    300.45565   -11278.423            0   -10383.717    637.44097     769.4643    9.1635304    9.1635304    9.1635304    78.547121 
 1197400    309.76738   -11306.152            0   -10383.718    2857.3475    769.05038     9.161887     9.161887     9.161887    73.447779 
 1197500    310.87335   -11311.884            0   -10386.156   -5442.2532    768.51135    9.1597459    9.1597459    9.1597459    86.591384 
 1197600    307.21717    -11304.26            0    -10389.42   -1935.8662    767.93114    9.1574402    9.1574402    9.1574402    90.051898 
 1197700     309.5011   -11315.746            0   -10394.105    10711.961    767.58022    9.1560451    9.1560451    9.1560451     75.89146 
 1197800    310.10141   -11323.438            0   -10400.009    3829.7053    767.84307    9.1570901    9.1570901    9.1570901    72.232499 
 1197900    303.54871    -11312.29            0   -10408.374    4033.5593    768.31782     9.158977     9.158977     9.158977    82.931431 
 1198000    307.29646   -11333.982            0   -10418.906    1029.2021    768.85664    9.1611175    9.1611175    9.1611175    59.673312 
 1198100    296.04048   -11309.285            0   -10427.727   -14612.052     769.2314    9.1626058    9.1626058    9.1626058    77.943194 
 1198200    305.52287   -11348.004            0   -10438.209   -1455.4504    769.06158    9.1619315    9.1619315    9.1619315    88.492243 
 1198300    305.68838   -11358.061            0   -10447.773   -7261.5722    768.51376    9.1597555    9.1597555    9.1597555    68.661051 
 1198400    295.00725   -11332.181            0     -10453.7   -6007.4779    767.49823    9.1557191    9.1557191    9.1557191    87.661719 
 1198500    290.60286   -11322.893            0   -10457.527    2988.3209    766.27752    9.1508625    9.1508625    9.1508625    82.728052 
 1198600    294.53091   -11337.893            0    -10460.83    10624.497    765.22206    9.1466591    9.1466591    9.1466591    49.999925 
 1198700    288.12471   -11319.754            0   -10461.768    11784.042    764.65693    9.1444069    9.1444069    9.1444069    84.989599 
 1198800    290.35775   -11327.439            0   -10462.803    238.91989    764.54973    9.1439796    9.1439796    9.1439796    75.678929 
 1198900    291.22783   -11329.517            0    -10462.29    11226.855    764.91001    9.1454157    9.1454157    9.1454157    62.595157 
 1199000    297.11627   -11345.433            0   -10460.671      5862.99    765.88246    9.1492896    9.1492896    9.1492896    84.255439 
 1199100    290.83369   -11323.058            0   -10457.005     8679.905    767.21413    9.1545893    9.1545893    9.1545893     89.08183 
 1199200    294.46559   -11331.308            0    -10454.44   -1678.5624    768.67951     9.160414     9.160414     9.160414    65.635058 
 1199300    299.88917   -11343.465            0   -10450.447   -6625.2317    769.93569    9.1654013    9.1654013    9.1654013    68.661138 
 1199400    281.32325   -11283.011            0   -10445.279   -12142.311     770.7609    9.1686746    9.1686746    9.1686746    66.595583 
 1199500    298.55689   -11329.495            0   -10440.444    -11783.74    770.67883    9.1683491    9.1683491    9.1683491     67.58755 
 1199600    302.17782   -11334.067            0   -10434.233   -8556.5874    769.80554    9.1648848    9.1648848    9.1648848     67.75329 
 1199700    299.24687   -11318.458            0   -10427.352    358.09916    768.40698    9.1593313    9.1593313    9.1593313    53.473422 
 1199800     300.1211   -11314.778            0   -10421.069   -996.46879    766.89207    9.1533081    9.1533081    9.1533081    69.962297 
 1199900    297.04482   -11299.347            0   -10414.799    6497.2939    765.72156    9.1486489    9.1486489    9.1486489    75.275064 
 1200000    299.66622   -11303.647            0   -10411.292    12798.197    765.00203    9.1457824    9.1457824    9.1457824    59.165236 
 1200100    305.35551   -11316.812            0   -10407.516    16096.854    764.98181    9.1457018    9.1457018    9.1457018    84.792457 
 1200200    307.74814   -11323.522            0     -10407.1    10873.879    765.95639     9.149584     9.149584     9.149584    80.486313 
 1200300     301.6794   -11304.582            0   -10406.232    8544.4408     767.5656     9.155987     9.155987     9.155987    60.370112 
 1200400    305.46711   -11315.905            0   -10406.276   -676.10797    769.30894    9.1629136    9.1629136    9.1629136    70.366576 
 1200500    304.49203   -11312.999            0   -10406.273   -15582.609    770.85811      9.16906      9.16906      9.16906    72.117034 
 1200600    302.31383   -11307.061            0   -10406.822   -5175.6443    771.90707    9.1732171    9.1732171    9.1732171     62.66378 
 1200700    292.05694   -11276.256            0    -10406.56   -3993.8084    772.38964    9.1751283    9.1751283    9.1751283    65.623308 
 1200800    318.37719   -11358.142            0   -10410.069   -22187.531    772.10832    9.1740143    9.1740143    9.1740143    61.418535 
 1200900    303.10653    -11312.62            0    -10410.02   -16527.288    770.91858    9.1692998    9.1692998    9.1692998    66.987147 
 1201000     297.0512   -11295.419            0   -10410.851    -4161.517    769.03884    9.1618412    9.1618412    9.1618412    68.748716 
Loop time of 1437.04 on 16 procs for 100000 steps with 1000 atoms

Performance: 6.012 ns/day, 3.992 hours/ns, 69.588 timesteps/s
94.8% CPU use with 16 MPI tasks x no OpenMP threads

MPI task timing breakdown:
Section |  min time  |  avg time  |  max time  |%varavg| %total
---------------------------------------------------------------
Pair    | 181.43     | 187.06     | 193.85     |  21.3 | 13.02
Neigh   | 76.394     | 78.433     | 81.276     |  12.7 |  5.46
Comm    | 70.343     | 80.012     | 87.716     |  44.1 |  5.57
Output  | 724.23     | 747.12     | 1084.7     | 318.9 | 51.99
Modify  | 5.9252     | 343.48     | 366.4      | 470.3 | 23.90
Other   |            | 0.929      |            |       |  0.06

Nlocal:    62.5 ave 67 max 57 min
Histogram: 1 0 1 1 3 3 1 2 1 3
Nghost:    1876.81 ave 1889 max 1863 min
Histogram: 1 1 0 5 1 2 0 2 3 1
Neighs:    0 ave 0 max 0 min
Histogram: 16 0 0 0 0 0 0 0 0 0
FullNghs:  19164.6 ave 20640 max 17548 min
Histogram: 1 1 1 2 4 1 2 1 2 1

Total # of neighbors = 306634
Ave neighs/atom = 306.634
Neighbor list builds = 100000
Dangerous builds not checked
Total wall time: 4:49:21
