LAMMPS (16 Mar 2018)
Reading data file ...
  orthogonal box = (-4.70954 -4.70954 -4.70954) to (4.70954 4.70954 4.70954)
  2 by 2 by 4 MPI processor grid
  reading atoms ...
  1000 atoms
Reading potential file /home/fs01/ajm529/lammps-16Mar18/potentials/sw_potentials/AG/eps2.23.sw with DATE: 2008-01-29
Neighbor list info ...
  update every 1 steps, delay 0 steps, check no
  max neighbors/atom: 2000, page size: 100000
  master list distance cutoff = 3.836
  ghost atom cutoff = 3.836
  binsize = 1.918, bins = 5 5 5
  1 neighbor lists, perpetual/occasional/extra = 1 0 0
  (1) pair sw, perpetual
      attributes: full, newton on
      pair build: full/bin/atomonly
      stencil: full/bin/3d
      bin: standard
Setting up Verlet run ...
  Unit style    : real
  Current step  : 0
  Time step     : 1
Per MPI rank memory allocation (min/avg/max) = 3.518 | 3.585 | 4.577 Mbytes
Step Temp E_pair E_mol TotEng Press Volume Lx Ly Lz S/CPU 
       0          300   -10159.562            0   -9266.2134   -31358.922    835.65461    9.4190898    9.4190898    9.4190898            0 
     100    325.81381   -10240.616            0   -9270.3986   -40943.922    834.20259    9.4136311    9.4136311    9.4136311    81.869135 
     200    319.95655   -10233.073            0   -9280.2975   -27396.807    830.07759    9.3980892    9.3980892    9.3980892    55.661706 
     300     318.2315   -10245.322            0   -9297.6831   -10044.028    823.83573    9.3744733    9.3744733    9.3744733    73.508093 
     400    326.93121   -10291.312            0   -9317.7666   -5074.9479    816.59015    9.3469097    9.3469097    9.3469097    72.834143 
     500     322.0561    -10296.21            0   -9337.1818   -8377.2551    808.66481    9.3165728    9.3165728    9.3165728    56.237059 
     600    315.99648   -10293.534            0   -9352.5509    -8046.981    800.66018    9.2857305    9.2857305    9.2857305    71.014256 
     700    327.37426    -10341.89            0   -9367.0257    6749.3781    793.33672    9.2573323    9.2573323    9.2573323    72.595432 
     800    312.12544   -10308.665            0   -9379.2087    18957.246    787.29635    9.2337776    9.2337776    9.2337776    59.750249 
     900    321.12749   -10352.263            0   -9396.0002    2749.1099    783.07261    9.2172354    9.2172354    9.2172354    78.914363 
    1000    321.95083   -10371.426            0   -9412.7112    18949.842    780.37418    9.2066358    9.2066358    9.2066358    78.479954 
Loop time of 14.5303 on 16 procs for 1000 steps with 1000 atoms

Performance: 5.946 ns/day, 4.036 hours/ns, 68.821 timesteps/s
94.6% CPU use with 16 MPI tasks x no OpenMP threads

MPI task timing breakdown:
Section |  min time  |  avg time  |  max time  |%varavg| %total
---------------------------------------------------------------
Pair    | 1.5788     | 1.6349     | 1.6859     |   2.9 | 11.25
Neigh   | 0.58742    | 0.60053    | 0.63502    |   1.9 |  4.13
Comm    | 0.39544    | 0.48026    | 0.54928    |   7.2 |  3.31
Output  | 7.8359     | 8.0858     | 11.786     |  33.6 | 55.65
Modify  | 0.02106    | 3.7219     | 3.9719     |  49.5 | 25.61
Other   |            | 0.006906   |            |       |  0.05

Nlocal:    62.5 ave 69 max 57 min
Histogram: 2 0 1 2 3 5 1 0 1 1
Nghost:    1864.62 ave 1887 max 1846 min
Histogram: 2 2 1 2 2 2 2 1 0 2
Neighs:    0 ave 0 max 0 min
Histogram: 16 0 0 0 0 0 0 0 0 0
FullNghs:  18916 ave 21086 max 17203 min
Histogram: 2 0 2 3 3 3 1 1 0 1

Total # of neighbors = 302656
Ave neighs/atom = 302.656
Neighbor list builds = 1000
Dangerous builds not checked
Setting up Verlet run ...
  Unit style    : real
  Current step  : 1000
  Time step     : 1
Per MPI rank memory allocation (min/avg/max) = 4.577 | 4.578 | 4.579 Mbytes
Step Temp E_pair E_mol TotEng Press Volume Lx Ly Lz S/CPU 
    1000    321.95083   -10371.426            0   -9412.7112    18949.842    780.37418    9.2066358    9.2066358    9.2066358            0 
    1100     326.4836   -10404.826            0   -9432.6136    33456.012    779.34906    9.2026027    9.2026027    9.2026027    58.228728 
    1200    320.16821    -10404.47            0   -9451.0639    26199.118     780.0703    9.2054406    9.2054406    9.2054406    77.317148 
    1300    311.07734   -10395.491            0   -9469.1559    15394.597    782.20213    9.2138188    9.2138188    9.2138188    72.471739 
    1400    309.44035   -10409.474            0   -9488.0133    21735.052    785.05425    9.2250039    9.2250039    9.2250039    61.005303 
    1500    319.26301   -10453.655            0   -9502.9445   -3391.1926    788.30094    9.2377034    9.2377034    9.2377034     67.93265 
    1600    308.00871   -10433.327            0   -9516.1296   -2888.3687    791.06457     9.248486     9.248486     9.248486     64.84138 
    1700    302.18973   -10429.644            0   -9529.7745   -8217.3541    793.18937    9.2567591    9.2567591    9.2567591    62.181917 
    1800    311.82693   -10471.907            0   -9543.3401   -8799.9508    794.31803    9.2611476    9.2611476    9.2611476    47.894757 
    1900    294.22971   -10429.302            0   -9553.1363   -7182.1004    794.26202    9.2609299    9.2609299    9.2609299    50.826467 
    2000    295.32812   -10443.163            0   -9563.7263    5171.4391    793.31987    9.2572667    9.2572667    9.2572667    56.083447 
Loop time of 16.4907 on 16 procs for 1000 steps with 1000 atoms

Performance: 5.239 ns/day, 4.581 hours/ns, 60.640 timesteps/s
94.5% CPU use with 16 MPI tasks x no OpenMP threads

MPI task timing breakdown:
Section |  min time  |  avg time  |  max time  |%varavg| %total
---------------------------------------------------------------
Pair    | 1.6326     | 1.7205     | 1.7967     |   2.8 | 10.43
Neigh   | 0.58925    | 0.60657    | 0.63972    |   1.5 |  3.68
Comm    | 0.37087    | 0.48074    | 0.56812    |   6.4 |  2.92
Output  | 9.7014     | 9.9515     | 13.655     |  30.3 | 60.35
Modify  | 0.020734   | 3.7245     | 3.9746     |  49.6 | 22.59
Other   |            | 0.006903   |            |       |  0.04

Nlocal:    62.5 ave 72 max 56 min
Histogram: 2 3 0 2 3 3 1 1 0 1
Nghost:    1836.94 ave 1858 max 1823 min
Histogram: 2 3 1 4 0 1 2 2 0 1
Neighs:    0 ave 0 max 0 min
Histogram: 16 0 0 0 0 0 0 0 0 0
FullNghs:  18627.2 ave 21433 max 16634 min
Histogram: 1 4 0 2 3 2 2 1 0 1

Total # of neighbors = 298036
Ave neighs/atom = 298.036
Neighbor list builds = 1000
Dangerous builds not checked
Setting up Verlet run ...
  Unit style    : real
  Current step  : 2000
  Time step     : 1
Per MPI rank memory allocation (min/avg/max) = 4.577 | 4.578 | 4.579 Mbytes
Step Temp E_pair E_mol TotEng Press Volume Lx Ly Lz S/CPU 
    2000    295.32812   -10443.163            0   -9563.7263    5171.4391    793.31987    9.2572667    9.2572667    9.2572667            0 
    2100    280.32349     -10405.9            0   -9571.1447   -9192.3406     792.1931    9.2528819    9.2528819    9.2528819    64.498913 
    2200    289.64819   -10441.786            0    -9579.263    2354.9736     790.9869    9.2481833    9.2481833    9.2481833    63.400063 
    2300    296.57581   -10469.351            0   -9586.1988    5105.5368    789.64661    9.2429569    9.2429569    9.2429569    55.256321 
    2400    302.63205   -10493.948            0   -9592.7615    5600.3662    788.12862    9.2370303    9.2370303    9.2370303    64.286135 
    2500    297.60163   -10484.542            0   -9598.3355   -10161.673    786.39806    9.2302645    9.2302645    9.2302645    59.088342 
    2600    292.73937   -10475.782            0    -9604.054    6181.2624    784.15584    9.2214835    9.2214835    9.2214835    64.496047 
    2700     297.1147   -10493.758            0   -9609.0011    2001.9383    782.16051    9.2136553    9.2136553    9.2136553    65.109008 
    2800    298.44707    -10501.28            0   -9612.5552     5962.901    780.42631    9.2068408    9.2068408    9.2068408    52.258865 
    2900    297.07961   -10500.956            0   -9616.3035    4087.9738    778.86839    9.2007104    9.2007104    9.2007104    67.007813 
    3000    301.65487   -10517.934            0   -9619.6574    951.70798    777.48953    9.1952777    9.1952777    9.1952777    80.724286 
Loop time of 15.9165 on 16 procs for 1000 steps with 1000 atoms

Performance: 5.428 ns/day, 4.421 hours/ns, 62.828 timesteps/s
94.6% CPU use with 16 MPI tasks x no OpenMP threads

MPI task timing breakdown:
Section |  min time  |  avg time  |  max time  |%varavg| %total
---------------------------------------------------------------
Pair    | 1.6587     | 1.7247     | 1.8164     |   3.2 | 10.84
Neigh   | 0.58478    | 0.6076     | 0.63006    |   1.6 |  3.82
Comm    | 0.37324    | 0.47754    | 0.56607    |   7.2 |  3.00
Output  | 9.1777     | 9.4248     | 13.079     |  30.7 | 59.21
Modify  | 0.020718   | 3.6749     | 3.9219     |  49.2 | 23.09
Other   |            | 0.006912   |            |       |  0.04

Nlocal:    62.5 ave 66 max 56 min
Histogram: 2 1 0 0 0 0 3 2 3 5
Nghost:    1869.31 ave 1894 max 1849 min
Histogram: 2 1 1 3 4 1 0 2 1 1
Neighs:    0 ave 0 max 0 min
Histogram: 16 0 0 0 0 0 0 0 0 0
FullNghs:  18983.6 ave 20221 max 16891 min
Histogram: 2 1 0 0 0 1 4 2 4 2

Total # of neighbors = 303738
Ave neighs/atom = 303.738
Neighbor list builds = 1000
Dangerous builds not checked
Setting up Verlet run ...
  Unit style    : real
  Current step  : 3000
  Time step     : 1
Per MPI rank memory allocation (min/avg/max) = 4.577 | 4.578 | 4.579 Mbytes
Step Temp E_pair E_mol TotEng Press Volume Lx Ly Lz S/CPU 
    3000    301.65487   -10517.934            0   -9619.6574    951.70798    777.48953    9.1952777    9.1952777    9.1952777            0 
    3100    291.99075   -10491.891            0   -9622.3923    8957.6221    776.32758    9.1906947    9.1906947    9.1906947    58.523068 
    3200    291.78705   -10492.753            0   -9623.8612     4212.871    775.86393    9.1888647    9.1888647    9.1888647    77.194092 
    3300    297.01172   -10510.925            0   -9626.4748    21209.527    776.32624    9.1906894    9.1906894    9.1906894    72.708312 
    3400    306.52461   -10541.384            0    -9628.606    6561.8272     777.8698    9.1967766    9.1967766    9.1967766    51.915482 
    3500    284.09876   -10474.967            0   -9628.9691    9407.8056    779.98024    9.2050863    9.2050863    9.2050863    72.934641 
    3600    305.61663   -10541.853            0   -9631.7785   -2641.7305    782.20297     9.213822     9.213822     9.213822    81.881865 
    3700    295.89906   -10513.098            0   -9631.9608    5493.4658     784.3852    9.2223825    9.2223825    9.2223825    66.151348 
    3800    292.28486   -10502.834            0     -9632.46   -1429.1124    786.56713    9.2309259    9.2309259    9.2309259    83.335943 
    3900     288.9331   -10490.527            0    -9630.134     7263.141    788.76759    9.2395259    9.2395259    9.2395259    71.090663 
    4000    288.44718   -10485.149            0   -9626.2028   -11595.601    791.10964    9.2486617    9.2486617    9.2486617    62.375367 
Loop time of 14.6196 on 16 procs for 1000 steps with 1000 atoms

Performance: 5.910 ns/day, 4.061 hours/ns, 68.401 timesteps/s
94.6% CPU use with 16 MPI tasks x no OpenMP threads

MPI task timing breakdown:
Section |  min time  |  avg time  |  max time  |%varavg| %total
---------------------------------------------------------------
Pair    | 1.6445     | 1.7422     | 1.8049     |   3.0 | 11.92
Neigh   | 0.58391    | 0.60937    | 0.63468    |   1.6 |  4.17
Comm    | 0.38976    | 0.45789    | 0.58125    |   6.9 |  3.13
Output  | 8.0521     | 8.2883     | 11.782     |  31.3 | 56.69
Modify  | 0.02047    | 3.5149     | 3.7512     |  48.1 | 24.04
Other   |            | 0.006894   |            |       |  0.05

Nlocal:    62.5 ave 67 max 53 min
Histogram: 1 0 0 1 1 2 3 2 3 3
Nghost:    1851.94 ave 1867 max 1836 min
Histogram: 3 0 1 3 0 2 0 3 3 1
Neighs:    0 ave 0 max 0 min
Histogram: 16 0 0 0 0 0 0 0 0 0
FullNghs:  18645.1 ave 20093 max 15613 min
Histogram: 1 0 0 1 1 0 5 2 4 2

Total # of neighbors = 298322
Ave neighs/atom = 298.322
Neighbor list builds = 1000
Dangerous builds not checked
Setting up Verlet run ...
  Unit style    : real
  Current step  : 4000
  Time step     : 1
Per MPI rank memory allocation (min/avg/max) = 4.577 | 4.578 | 4.579 Mbytes
Step Temp E_pair E_mol TotEng Press Volume Lx Ly Lz S/CPU 
    4000    288.44718   -10485.149            0   -9626.2028   -11595.601    791.10964    9.2486617    9.2486617    9.2486617            0 
    4100    283.67886   -10464.665            0   -9619.9175   -8433.1297    792.61816    9.2545365    9.2545365    9.2545365    72.687422 
    4200    282.58587   -10453.269            0   -9611.7763    -9585.043    793.00056    9.2560246    9.2560246    9.2560246    78.841204 
    4300    299.99888   -10495.795            0     -9602.45   -15928.479    792.52179    9.2541614    9.2541614    9.2541614    54.519412 
    4400     299.0178   -10481.156            0   -9590.7322   -5440.1434     791.5196    9.2502589    9.2502589    9.2502589    62.225691 
    4500    291.57069   -10448.159            0   -9579.9111   -7528.5552     790.2799    9.2454271    9.2454271    9.2454271    71.145818 
    4600    304.54346    -10478.04            0   -9571.1618   -5361.8076     788.6548    9.2390854    9.2390854    9.2390854    60.856273 
    4700    304.44166   -10470.332            0   -9563.7565   -4903.2832    786.25734    9.2297139    9.2297139    9.2297139    63.333048 
    4800    304.96098   -10466.345            0   -9558.2232    556.52324     783.4011    9.2185241    9.2185241    9.2185241     67.94878 
    4900    305.33719   -10465.209            0   -9555.9666    16126.889    780.56666    9.2073927    9.2073927    9.2073927    58.871869 
    5000    309.25386   -10476.341            0   -9555.4358    16191.236    778.32996    9.1985897    9.1985897    9.1985897    55.257462 
Loop time of 15.6931 on 16 procs for 1000 steps with 1000 atoms

Performance: 5.506 ns/day, 4.359 hours/ns, 63.722 timesteps/s
94.6% CPU use with 16 MPI tasks x no OpenMP threads

MPI task timing breakdown:
Section |  min time  |  avg time  |  max time  |%varavg| %total
---------------------------------------------------------------
Pair    | 1.655      | 1.7123     | 1.7889     |   3.0 | 10.91
Neigh   | 0.58885    | 0.60673    | 0.63881    |   1.6 |  3.87
Comm    | 0.36801    | 0.47719    | 0.53537    |   6.7 |  3.04
Output  | 8.5598     | 8.8324     | 12.869     |  35.1 | 56.28
Modify  | 0.020612   | 4.0577     | 4.3302     |  51.7 | 25.86
Other   |            | 0.006879   |            |       |  0.04

Nlocal:    62.5 ave 69 max 57 min
Histogram: 1 2 1 3 0 5 2 1 0 1
Nghost:    1855.06 ave 1868 max 1841 min
Histogram: 2 2 0 2 2 2 1 0 3 2
Neighs:    0 ave 0 max 0 min
Histogram: 16 0 0 0 0 0 0 0 0 0
FullNghs:  18939.5 ave 21182 max 17182 min
Histogram: 1 2 1 3 2 3 3 0 0 1

Total # of neighbors = 303032
Ave neighs/atom = 303.032
Neighbor list builds = 1000
Dangerous builds not checked
Setting up Verlet run ...
  Unit style    : real
  Current step  : 5000
  Time step     : 1
Per MPI rank memory allocation (min/avg/max) = 4.577 | 4.579 | 4.579 Mbytes
Step Temp E_pair E_mol TotEng Press Volume Lx Ly Lz S/CPU 
    5000    309.25386   -10476.341            0   -9555.4358    16191.236    778.32996    9.1985897    9.1985897    9.1985897            0 
    5100    308.82583   -10476.211            0   -9556.5801    6355.2508    776.72547    9.1922646    9.1922646    9.1922646    66.493463 
    5200    291.94054   -10426.813            0   -9557.4635    25598.771    775.81172    9.1886585    9.1886585    9.1886585    46.947292 
    5300    299.69811   -10451.581            0   -9559.1315    9847.1575    776.55451    9.1915901    9.1915901    9.1915901    71.460479 
    5400    297.11971   -10447.676            0   -9562.9039   -388.11977    778.21103    9.1981212    9.1981212    9.1981212    67.466258 
    5500    306.59757   -10480.375            0   -9567.3794    11401.427    780.08245    9.2054884    9.2054884    9.2054884    59.433222 
    5600    301.13966    -10469.43            0   -9572.6874   -5842.5854     782.1474    9.2136039    9.2136039    9.2136039    71.904756 
    5700    300.37789   -10472.636            0   -9578.1624   -4267.1747    784.10514    9.2212848    9.2212848    9.2212848    80.656073 
    5800    299.88298   -10478.648            0   -9585.6475     2656.444    785.72998    9.2276499    9.2276499    9.2276499     57.86525 
    5900    296.49718   -10476.944            0   -9594.0257   -11212.686    786.90346    9.2322414    9.2322414    9.2322414    56.075369 
    6000    294.98271   -10481.628            0   -9603.2203   -18259.931    786.88708    9.2321773    9.2321773    9.2321773    61.499053 
Loop time of 15.9662 on 16 procs for 1000 steps with 1000 atoms

Performance: 5.411 ns/day, 4.435 hours/ns, 62.632 timesteps/s
94.6% CPU use with 16 MPI tasks x no OpenMP threads

MPI task timing breakdown:
Section |  min time  |  avg time  |  max time  |%varavg| %total
---------------------------------------------------------------
Pair    | 1.7076     | 1.7485     | 1.8056     |   1.9 | 10.95
Neigh   | 0.59847    | 0.60866    | 0.63615    |   1.4 |  3.81
Comm    | 0.41309    | 0.46769    | 0.51364    |   3.9 |  2.93
Output  | 8.8333     | 9.1039     | 13.113     |  34.3 | 57.02
Modify  | 0.020727   | 4.0306     | 4.3014     |  51.6 | 25.24
Other   |            | 0.006928   |            |       |  0.04

Nlocal:    62.5 ave 68 max 57 min
Histogram: 1 1 2 2 3 2 1 1 1 2
Nghost:    1846.31 ave 1864 max 1829 min
Histogram: 1 2 1 2 3 2 0 2 1 2
Neighs:    0 ave 0 max 0 min
Histogram: 16 0 0 0 0 0 0 0 0 0
FullNghs:  18743.4 ave 20344 max 16879 min
Histogram: 1 1 0 3 2 4 1 1 1 2

Total # of neighbors = 299894
Ave neighs/atom = 299.894
Neighbor list builds = 1000
Dangerous builds not checked
Setting up Verlet run ...
  Unit style    : real
  Current step  : 6000
  Time step     : 1
Per MPI rank memory allocation (min/avg/max) = 4.577 | 4.579 | 4.579 Mbytes
Step Temp E_pair E_mol TotEng Press Volume Lx Ly Lz S/CPU 
    6000    294.98271   -10481.628            0   -9603.2203   -18259.931    786.88708    9.2321773    9.2321773    9.2321773            0 
    6100    289.84343   -10476.928            0   -9613.8234    -10872.01    785.92893    9.2284286    9.2284286    9.2284286    60.027253 
    6200    295.61195   -10507.426            0   -9627.1441   -21021.783    784.19266    9.2216278    9.2216278    9.2216278    78.388585 
    6300    300.59271   -10537.553            0   -9642.4396    1023.3764    781.81686    9.2123057    9.2123057    9.2123057    59.005354 
    6400    299.94395   -10549.497            0   -9656.3151     6692.778    779.41104    9.2028466    9.2028466    9.2028466    63.995433 
    6500      293.468   -10542.324            0   -9668.4265    11570.033    777.49966    9.1953176    9.1953176    9.1953176    77.791202 
    6600    288.65437    -10536.86            0   -9677.2961    17988.739    776.62402    9.1918644    9.1918644    9.1918644    74.764251 
    6700     291.5823   -10551.478            0   -9683.1954    6751.7123    776.62879    9.1918832    9.1918832    9.1918832    53.842737 
    6800    291.03033   -10552.348            0   -9685.7092    5475.6402    777.17772    9.1940483    9.1940483    9.1940483    69.009376 
    6900     279.6796    -10518.78            0   -9685.9415   -565.87267    778.24302    9.1982472    9.1982472    9.1982472    63.759184 
    7000    291.58466   -10552.472            0    -9684.183    4211.5949    779.34616    9.2025913    9.2025913    9.2025913    66.702524 
Loop time of 15.196 on 16 procs for 1000 steps with 1000 atoms

Performance: 5.686 ns/day, 4.221 hours/ns, 65.807 timesteps/s
94.6% CPU use with 16 MPI tasks x no OpenMP threads

MPI task timing breakdown:
Section |  min time  |  avg time  |  max time  |%varavg| %total
---------------------------------------------------------------
Pair    | 1.6702     | 1.7468     | 1.8001     |   2.7 | 11.50
Neigh   | 0.59581    | 0.60935    | 0.64304    |   2.0 |  4.01
Comm    | 0.37478    | 0.45343    | 0.54326    |   7.1 |  2.98
Output  | 8.5211     | 8.764      | 12.359     |  31.4 | 57.67
Modify  | 0.020375   | 3.6155     | 3.8585     |  48.8 | 23.79
Other   |            | 0.006878   |            |       |  0.05

Nlocal:    62.5 ave 65 max 60 min
Histogram: 3 0 2 0 3 0 4 0 0 4
Nghost:    1861.75 ave 1880 max 1840 min
Histogram: 1 0 0 3 3 1 4 3 0 1
Neighs:    0 ave 0 max 0 min
Histogram: 16 0 0 0 0 0 0 0 0 0
FullNghs:  18963 ave 19733 max 18141 min
Histogram: 2 1 2 1 2 1 3 0 0 4

Total # of neighbors = 303408
Ave neighs/atom = 303.408
Neighbor list builds = 1000
Dangerous builds not checked
Setting up Verlet run ...
  Unit style    : real
  Current step  : 7000
  Time step     : 1
Per MPI rank memory allocation (min/avg/max) = 4.577 | 4.579 | 4.58 Mbytes
Step Temp E_pair E_mol TotEng Press Volume Lx Ly Lz S/CPU 
    7000    291.58466   -10552.472            0    -9684.183    4211.5949    779.34616    9.2025913    9.2025913    9.2025913            0 
    7100    275.82625   -10500.977            0   -9679.6138    3419.8645    780.29225    9.2063136    9.2063136    9.2063136     65.20074 
    7200    294.15951   -10550.543            0   -9674.5866   -6639.4358    780.87609    9.2086092    9.2086092    9.2086092    59.217769 
    7300    306.14109   -10580.621            0   -9668.9853   -4492.5195    780.92224    9.2087906    9.2087906    9.2087906    61.252355 
    7400    293.32913   -10534.714            0   -9661.2296   -2991.0594    780.80238    9.2083194    9.2083194    9.2083194    53.268101 
    7500    294.33273   -10529.585            0    -9653.112   -2459.3831    780.59509    9.2075045    9.2075045    9.2075045    47.058642 
    7600    294.14234   -10520.469            0   -9644.5629    2890.1605    780.62153    9.2076084    9.2076084    9.2076084    74.503145 
    7700    291.41965   -10504.715            0   -9636.9166   -1424.9367    780.77932    9.2082288    9.2082288    9.2082288    63.863968 
    7800    290.87065   -10494.442            0   -9628.2792    1832.5866    780.99097    9.2090607    9.2090607    9.2090607    57.706667 
    7900    307.40873   -10537.358            0   -9621.9474    -4264.181    781.18349    9.2098174    9.2098174    9.2098174    68.616285 
    8000    301.81598    -10514.05            0   -9615.2938    14510.556    781.27089    9.2101608    9.2101608    9.2101608    80.781012 
Loop time of 16.1936 on 16 procs for 1000 steps with 1000 atoms

Performance: 5.335 ns/day, 4.498 hours/ns, 61.753 timesteps/s
94.6% CPU use with 16 MPI tasks x no OpenMP threads

MPI task timing breakdown:
Section |  min time  |  avg time  |  max time  |%varavg| %total
---------------------------------------------------------------
Pair    | 1.6523     | 1.746      | 1.8244     |   3.3 | 10.78
Neigh   | 0.59801    | 0.60966    | 0.64182    |   1.5 |  3.76
Comm    | 0.38741    | 0.47543    | 0.57165    |   6.9 |  2.94
Output  | 8.7707     | 9.0591     | 13.335     |  36.7 | 55.94
Modify  | 0.020714   | 4.2966     | 4.5849     |  53.3 | 26.53
Other   |            | 0.00692    |            |       |  0.04

Nlocal:    62.5 ave 70 max 55 min
Histogram: 1 0 2 2 3 1 5 0 1 1
Nghost:    1858.94 ave 1890 max 1838 min
Histogram: 2 2 1 2 3 3 2 0 0 1
Neighs:    0 ave 0 max 0 min
Histogram: 16 0 0 0 0 0 0 0 0 0
FullNghs:  18888.1 ave 21218 max 16364 min
Histogram: 1 0 2 3 1 2 4 1 0 2

Total # of neighbors = 302210
Ave neighs/atom = 302.21
Neighbor list builds = 1000
Dangerous builds not checked
Setting up Verlet run ...
  Unit style    : real
  Current step  : 8000
  Time step     : 1
Per MPI rank memory allocation (min/avg/max) = 4.577 | 4.579 | 4.58 Mbytes
Step Temp E_pair E_mol TotEng Press Volume Lx Ly Lz S/CPU 
    8000    301.81598    -10514.05            0   -9615.2938    14510.556    781.27089    9.2101608    9.2101608    9.2101608            0 
    8100    303.20012   -10512.721            0   -9609.8424    9782.0631    781.87554    9.2125362    9.2125362    9.2125362    56.359392 
    8200    312.38965   -10534.941            0   -9604.6983    2520.0856    783.45789    9.2187468    9.2187468    9.2187468    77.191887 
    8300    310.30714   -10524.035            0   -9599.9937   -379.18972    785.46075    9.2265958    9.2265958    9.2265958    74.710122 
    8400    298.20537   -10484.468            0   -9596.4637    1536.5877    787.60015    9.2349652    9.2349652    9.2349652    61.194946 
    8500    293.21594    -10464.89            0   -9591.7434   -5057.4672    789.77366    9.2434525    9.2434525    9.2434525    77.280404 
    8600    307.98239   -10506.908            0   -9589.7891   -15831.898    791.30284    9.2494145    9.2494145    9.2494145    62.691915 
    8700      303.047   -10489.492            0   -9587.0701   -19914.071    791.88759    9.2516923    9.2516923    9.2516923    40.911532 
    8800    308.39364   -10505.122            0   -9586.7783   -14015.924    791.25562    9.2492305    9.2492305    9.2492305    72.006043 
    8900    306.83767   -10499.439            0   -9585.7289   -1886.9636    789.96718    9.2442074    9.2442074    9.2442074    63.613642 
    9000     302.4858   -10486.555            0   -9585.8042   -5202.7322    788.33387     9.237832     9.237832     9.237832    54.666222 
Loop time of 16.1659 on 16 procs for 1000 steps with 1000 atoms

Performance: 5.345 ns/day, 4.491 hours/ns, 61.859 timesteps/s
94.6% CPU use with 16 MPI tasks x no OpenMP threads

MPI task timing breakdown:
Section |  min time  |  avg time  |  max time  |%varavg| %total
---------------------------------------------------------------
Pair    | 1.6391     | 1.7148     | 1.7881     |   2.6 | 10.61
Neigh   | 0.59158    | 0.60691    | 0.63567    |   1.6 |  3.75
Comm    | 0.37276    | 0.46011    | 0.53567    |   6.0 |  2.85
Output  | 9.0369     | 9.31       | 13.356     |  34.2 | 57.59
Modify  | 0.020496   | 4.0672     | 4.3403     |  51.8 | 25.16
Other   |            | 0.00689    |            |       |  0.04

Nlocal:    62.5 ave 67 max 56 min
Histogram: 1 0 3 2 1 1 2 0 1 5
Nghost:    1843 ave 1866 max 1821 min
Histogram: 3 0 1 2 2 1 3 1 1 2
Neighs:    0 ave 0 max 0 min
Histogram: 16 0 0 0 0 0 0 0 0 0
FullNghs:  18718.4 ave 20273 max 16812 min
Histogram: 1 0 3 3 0 1 2 2 1 3

Total # of neighbors = 299494
Ave neighs/atom = 299.494
Neighbor list builds = 1000
Dangerous builds not checked
Setting up Verlet run ...
  Unit style    : real
  Current step  : 9000
  Time step     : 1
Per MPI rank memory allocation (min/avg/max) = 4.577 | 4.579 | 4.58 Mbytes
Step Temp E_pair E_mol TotEng Press Volume Lx Ly Lz S/CPU 
    9000     302.4858   -10486.555            0   -9585.8042   -5202.7322    788.33387     9.237832     9.237832     9.237832            0 
    9100    299.52169   -10477.905            0   -9585.9809    10699.944    786.53111     9.230785     9.230785     9.230785    61.158814 
    9200     300.5687   -10482.683            0   -9587.6406   -9361.6655    785.16198    9.2254258    9.2254258    9.2254258     63.92126 
    9300    303.15046   -10493.209            0   -9590.4785    9017.3155    784.43326    9.2225708    9.2225708    9.2225708    58.621651 
    9400    298.93445   -10485.988            0   -9595.8124   -1035.4628    784.12792     9.221374     9.221374     9.221374    83.809757 
    9500    299.06698   -10495.049            0    -9604.479   -542.55709    783.51217    9.2189597    9.2189597    9.2189597    51.364718 
    9600    300.07949   -10508.603            0    -9615.018    10983.918    782.77219    9.2160565    9.2160565    9.2160565    61.568434 
    9700    287.47096   -10482.326            0   -9626.2866   -15225.442    782.22506    9.2139088    9.2139088    9.2139088     69.52314 
    9800    294.60758   -10514.139            0   -9636.8484     2351.726    781.85188    9.2124433    9.2124433    9.2124433    60.226368 
    9900    293.15993   -10518.735            0   -9645.7543    7860.0377    781.65504    9.2116701    9.2116701    9.2116701    72.071026 
   10000     295.7133   -10532.802            0   -9652.2185   -242.30886    781.74405    9.2120198    9.2120198    9.2120198    82.031927 
Loop time of 15.375 on 16 procs for 1000 steps with 1000 atoms

Performance: 5.620 ns/day, 4.271 hours/ns, 65.041 timesteps/s
94.6% CPU use with 16 MPI tasks x no OpenMP threads

MPI task timing breakdown:
Section |  min time  |  avg time  |  max time  |%varavg| %total
---------------------------------------------------------------
Pair    | 1.6866     | 1.7374     | 1.8388     |   2.9 | 11.30
Neigh   | 0.59018    | 0.60819    | 0.63653    |   1.5 |  3.96
Comm    | 0.35795    | 0.46941    | 0.53885    |   6.3 |  3.05
Output  | 8.574      | 8.8245     | 12.532     |  32.2 | 57.40
Modify  | 0.020534   | 3.7286     | 3.979      |  49.6 | 24.25
Other   |            | 0.006889   |            |       |  0.04

Nlocal:    62.5 ave 66 max 58 min
Histogram: 1 2 1 1 0 2 4 1 1 3
Nghost:    1856.19 ave 1882 max 1832 min
Histogram: 2 2 1 2 1 1 3 2 0 2
Neighs:    0 ave 0 max 0 min
Histogram: 16 0 0 0 0 0 0 0 0 0
FullNghs:  18901.1 ave 20129 max 17603 min
Histogram: 2 2 0 1 2 2 3 0 1 3

Total # of neighbors = 302418
Ave neighs/atom = 302.418
Neighbor list builds = 1000
Dangerous builds not checked
Setting up Verlet run ...
  Unit style    : real
  Current step  : 10000
  Time step     : 1
Per MPI rank memory allocation (min/avg/max) = 4.577 | 4.579 | 4.58 Mbytes
Step Temp E_pair E_mol TotEng Press Volume Lx Ly Lz S/CPU 
   10000     295.7133   -10532.802            0   -9652.2185   -242.30886    781.74405    9.2120198    9.2120198    9.2120198            0 
   10100    304.05195   -10564.056            0   -9658.6412    14617.558     781.9872    9.2129748    9.2129748    9.2129748    48.581746 
   10200    289.87613   -10523.554            0   -9660.3528    1725.8081    782.59543    9.2153628    9.2153628    9.2153628    59.809368 
   10300    288.83977   -10521.341            0   -9661.2257    3241.1528    783.29695    9.2181155    9.2181155    9.2181155    56.694851 
   10400    298.16437       -10548            0   -9660.1173   -7987.3658    783.81594    9.2201509    9.2201509    9.2201509    67.926746 
   10500    299.53423   -10547.528            0   -9655.5662   -1356.7417    783.99616    9.2208575    9.2208575    9.2208575    72.413686 
   10600    294.39023   -10524.442            0   -9647.7978    2511.9363    783.68461    9.2196359    9.2196359    9.2196359    58.956065 
   10700    289.90905   -10499.778            0   -9636.4785   -6860.7261    783.30699    9.2181549    9.2181549    9.2181549    86.840925 
   10800    294.33561   -10501.294            0   -9624.8126   -1359.6335    782.94493    9.2167344    9.2167344    9.2167344    81.717837 
   10900    299.89872   -10505.878            0   -9612.8306    18183.741     783.0696    9.2172236    9.2172236    9.2172236    74.395975 
   11000    294.11558   -10478.709            0    -9602.883   -2866.0199    784.04199    9.2210372    9.2210372    9.2210372    55.300752 
Loop time of 15.5712 on 16 procs for 1000 steps with 1000 atoms

Performance: 5.549 ns/day, 4.325 hours/ns, 64.221 timesteps/s
94.7% CPU use with 16 MPI tasks x no OpenMP threads

MPI task timing breakdown:
Section |  min time  |  avg time  |  max time  |%varavg| %total
---------------------------------------------------------------
Pair    | 1.6806     | 1.7357     | 1.7838     |   2.5 | 11.15
Neigh   | 0.59337    | 0.60823    | 0.62767    |   1.2 |  3.91
Comm    | 0.39387    | 0.44961    | 0.51716    |   5.3 |  2.89
Output  | 8.2852     | 8.5672     | 12.75      |  36.9 | 55.02
Modify  | 0.020621   | 4.2035     | 4.4856     |  52.7 | 27.00
Other   |            | 0.006895   |            |       |  0.04

Nlocal:    62.5 ave 67 max 56 min
Histogram: 1 1 1 0 0 4 3 2 3 1
Nghost:    1848 ave 1880 max 1819 min
Histogram: 1 2 2 3 0 3 1 1 1 2
Neighs:    0 ave 0 max 0 min
Histogram: 16 0 0 0 0 0 0 0 0 0
FullNghs:  18828.2 ave 20449 max 16755 min
Histogram: 1 1 1 0 1 5 3 2 1 1

Total # of neighbors = 301252
Ave neighs/atom = 301.252
Neighbor list builds = 1000
Dangerous builds not checked
Setting up Verlet run ...
  Unit style    : real
  Current step  : 11000
  Time step     : 1
Per MPI rank memory allocation (min/avg/max) = 4.577 | 4.579 | 4.58 Mbytes
Step Temp E_pair E_mol TotEng Press Volume Lx Ly Lz S/CPU 
   11000    294.11558   -10478.709            0    -9602.883   -2866.0199    784.04199    9.2210372    9.2210372    9.2210372            0 
   11100    303.65553   -10499.508            0   -9595.2734   -7932.9759    785.41937    9.2264338    9.2264338    9.2264338    79.507504 
   11200    303.81695   -10494.021            0   -9589.3063   -5939.9492    786.53661    9.2308065    9.2308065    9.2308065    84.097643 
   11300    304.90634   -10492.697            0   -9584.7384   -3513.4062     786.9516    9.2324297    9.2324297    9.2324297    59.874273 
   11400    307.77858   -10499.304            0   -9582.7921   -10498.385    786.88489    9.2321688    9.2321688    9.2321688     60.73658 
   11500    298.28416   -10469.927            0   -9581.6881    409.66537     785.9646    9.2285682    9.2285682    9.2285682     49.64721 
   11600    296.34508   -10464.437            0   -9581.9718   -9880.6414    784.60691    9.2232513    9.2232513    9.2232513    60.284029 
   11700    312.72892   -10514.468            0   -9583.2151   -8807.8534    782.85273    9.2163726    9.2163726    9.2163726    77.888934 
   11800    299.84129   -10477.965            0   -9585.0887    19207.205    781.04401    9.2092692    9.2092692    9.2092692    48.285875 
   11900    308.83063   -10508.375            0   -9588.7303    14875.538    779.95997    9.2050066    9.2050066    9.2050066     76.49943 
   12000    308.23192    -10511.02            0   -9593.1582    10767.938    779.95862    9.2050013    9.2050013    9.2050013    77.218086 
Loop time of 15.3936 on 16 procs for 1000 steps with 1000 atoms

Performance: 5.613 ns/day, 4.276 hours/ns, 64.962 timesteps/s
94.6% CPU use with 16 MPI tasks x no OpenMP threads

MPI task timing breakdown:
Section |  min time  |  avg time  |  max time  |%varavg| %total
---------------------------------------------------------------
Pair    | 1.5953     | 1.733      | 1.7858     |   3.8 | 11.26
Neigh   | 0.57934    | 0.60752    | 0.63637    |   1.8 |  3.95
Comm    | 0.39471    | 0.46272    | 0.62866    |   8.7 |  3.01
Output  | 8.245      | 8.5179     | 12.563     |  35.8 | 55.33
Modify  | 0.020729   | 4.0656     | 4.3383     |  51.8 | 26.41
Other   |            | 0.006897   |            |       |  0.04

Nlocal:    62.5 ave 69 max 58 min
Histogram: 2 2 1 3 3 2 2 0 0 1
Nghost:    1879 ave 1896 max 1857 min
Histogram: 1 0 2 1 0 6 1 2 2 1
Neighs:    0 ave 0 max 0 min
Histogram: 16 0 0 0 0 0 0 0 0 0
FullNghs:  18922 ave 21034 max 17501 min
Histogram: 2 1 2 3 4 1 2 0 0 1

Total # of neighbors = 302752
Ave neighs/atom = 302.752
Neighbor list builds = 1000
Dangerous builds not checked
Setting up Verlet run ...
  Unit style    : real
  Current step  : 12000
  Time step     : 1
Per MPI rank memory allocation (min/avg/max) = 4.577 | 4.579 | 4.58 Mbytes
Step Temp E_pair E_mol TotEng Press Volume Lx Ly Lz S/CPU 
   12000    308.23192    -10511.02            0   -9593.1582    10767.938    779.95862    9.2050013    9.2050013    9.2050013            0 
   12100    297.51729    -10484.61            0   -9598.6542    7561.9646    781.02361     9.209189     9.209189     9.209189    69.290816 
   12200    292.06334   -10473.938            0   -9604.2237    -11855.88    782.98954    9.2169094    9.2169094    9.2169094    55.298164 
   12300     296.7909   -10493.601            0   -9609.8083    1851.1474    785.18798    9.2255276    9.2255276    9.2255276    78.560951 
   12400     303.8084   -10521.148            0   -9616.4583   -14452.643    787.51186    9.2346201    9.2346201    9.2346201    60.596515 
   12500    296.68982   -10505.659            0   -9622.1675   -22974.071    789.40868    9.2420284    9.2420284    9.2420284    65.811673 
   12600    292.47669   -10497.609            0   -9626.6636   -21646.178    790.26107    9.2453537    9.2453537    9.2453537    80.878694 
   12700    295.98411   -10512.244            0    -9630.854    853.91413    790.18258    9.2450476    9.2450476    9.2450476    56.890566 
   12800    300.69229   -10528.804            0   -9633.3933   -12410.846    789.80429     9.243572     9.243572     9.243572    67.900476 
   12900    305.46507   -10545.887            0    -9636.264   -2514.4333    788.93784    9.2401906    9.2401906    9.2401906    76.987082 
   13000    308.17709   -10558.131            0    -9640.432   -758.06102    787.80788     9.235777     9.235777     9.235777     64.35973 
Loop time of 15.0138 on 16 procs for 1000 steps with 1000 atoms

Performance: 5.755 ns/day, 4.171 hours/ns, 66.605 timesteps/s
94.6% CPU use with 16 MPI tasks x no OpenMP threads

MPI task timing breakdown:
Section |  min time  |  avg time  |  max time  |%varavg| %total
---------------------------------------------------------------
Pair    | 1.6452     | 1.7179     | 1.7934     |   2.8 | 11.44
Neigh   | 0.58759    | 0.60607    | 0.64083    |   1.8 |  4.04
Comm    | 0.36409    | 0.45554    | 0.54735    |   6.9 |  3.03
Output  | 7.9877     | 8.2543     | 12.207     |  35.5 | 54.98
Modify  | 0.020603   | 3.9731     | 4.2399     |  51.2 | 26.46
Other   |            | 0.006858   |            |       |  0.05

Nlocal:    62.5 ave 70 max 58 min
Histogram: 3 1 1 3 2 5 0 0 0 1
Nghost:    1849.75 ave 1879 max 1825 min
Histogram: 3 1 1 2 2 2 1 0 2 2
Neighs:    0 ave 0 max 0 min
Histogram: 16 0 0 0 0 0 0 0 0 0
FullNghs:  18730 ave 21138 max 17382 min
Histogram: 3 2 1 2 5 2 0 0 0 1

Total # of neighbors = 299680
Ave neighs/atom = 299.68
Neighbor list builds = 1000
Dangerous builds not checked
Setting up Verlet run ...
  Unit style    : real
  Current step  : 13000
  Time step     : 1
Per MPI rank memory allocation (min/avg/max) = 4.577 | 4.579 | 4.58 Mbytes
Step Temp E_pair E_mol TotEng Press Volume Lx Ly Lz S/CPU 
   13000    308.17709   -10558.131            0    -9640.432   -758.06102    787.80788     9.235777     9.235777     9.235777            0 
   13100    293.61986   -10518.537            0   -9644.1871   -6006.7306    786.52143    9.2307471    9.2307471    9.2307471    79.628737 
   13200    303.50038   -10553.583            0   -9649.8105   -988.52009    785.08606    9.2251285    9.2251285    9.2251285    79.318812 
   13300    295.92598   -10538.864            0   -9657.6466   -1755.2361    783.92794    9.2205901    9.2205901    9.2205901    58.721242 
   13400    283.54308   -10510.639            0   -9666.2962   -8276.2149    782.99886     9.216946     9.216946     9.216946    76.061348 
   13500    286.96225   -10530.748            0   -9676.2237    15080.044    781.89882    9.2126277    9.2126277    9.2126277    82.282011 
   13600    289.93771   -10547.879            0   -9684.4942    7310.1413    780.93909    9.2088568    9.2088568    9.2088568    67.411652 
   13700    305.03507   -10600.011            0   -9691.6683    7087.3148    780.15241    9.2057636    9.2057636    9.2057636    60.958261 
   13800    290.09404   -10559.193            0   -9695.3427    11241.806    780.00568    9.2051864    9.2051864    9.2051864    83.511044 
   13900    302.30396   -10599.165            0   -9698.9558    2552.9313    780.54578    9.2073106    9.2073106    9.2073106    62.413134 
   14000    289.96088    -10562.53            0   -9699.0764   -11536.485    781.20501    9.2099019    9.2099019    9.2099019    72.609613 
Loop time of 14.0504 on 16 procs for 1000 steps with 1000 atoms

Performance: 6.149 ns/day, 3.903 hours/ns, 71.172 timesteps/s
94.7% CPU use with 16 MPI tasks x no OpenMP threads

MPI task timing breakdown:
Section |  min time  |  avg time  |  max time  |%varavg| %total
---------------------------------------------------------------
Pair    | 1.6179     | 1.7328     | 1.8181     |   3.7 | 12.33
Neigh   | 0.59389    | 0.60829    | 0.62692    |   1.3 |  4.33
Comm    | 0.35654    | 0.453      | 0.55967    |   7.7 |  3.22
Output  | 7.1543     | 7.4121     | 11.229     |  36.2 | 52.75
Modify  | 0.020405   | 3.8373     | 4.0951     |  50.3 | 27.31
Other   |            | 0.006898   |            |       |  0.05

Nlocal:    62.5 ave 71 max 58 min
Histogram: 3 4 0 3 2 0 2 1 0 1
Nghost:    1858.56 ave 1875 max 1844 min
Histogram: 2 2 0 4 0 2 2 2 1 1
Neighs:    0 ave 0 max 0 min
Histogram: 16 0 0 0 0 0 0 0 0 0
FullNghs:  18907.4 ave 21447 max 17470 min
Histogram: 3 3 2 2 2 0 2 1 0 1

Total # of neighbors = 302518
Ave neighs/atom = 302.518
Neighbor list builds = 1000
Dangerous builds not checked
Setting up Verlet run ...
  Unit style    : real
  Current step  : 14000
  Time step     : 1
Per MPI rank memory allocation (min/avg/max) = 4.577 | 4.579 | 4.58 Mbytes
Step Temp E_pair E_mol TotEng Press Volume Lx Ly Lz S/CPU 
   14000    289.96088    -10562.53            0   -9699.0764   -11536.485    781.20501    9.2099019    9.2099019    9.2099019            0 
   14100    282.63436   -10537.267            0   -9695.6303   -4638.1988    781.27349    9.2101711    9.2101711    9.2101711     81.57493 
   14200    283.36952   -10533.297            0    -9689.471     5071.571     781.1515    9.2096917    9.2096917    9.2096917    76.764544 
   14300    288.68444    -10539.81            0    -9680.157   -1526.5593    781.19031    9.2098442    9.2098442    9.2098442    58.126877 
   14400    294.20275   -10544.952            0   -9668.8661   -7955.4971    781.09208    9.2094582    9.2094582    9.2094582    65.504765 
   14500    287.86465     -10512.7            0   -9655.4878   -63.036333    780.63539    9.2076629    9.2076629    9.2076629    67.781313 
   14600     300.8663   -10541.377            0   -9645.4484    773.86536    780.18451    9.2058899    9.2058899    9.2058899    66.777418 
   14700    301.70371   -10533.278            0   -9634.8561   -10625.939    779.83711    9.2045232    9.2045232    9.2045232    54.835516 
   14800    306.05966   -10540.625            0   -9629.2311   -3392.3357    779.77627    9.2042839    9.2042839    9.2042839    52.223902 
   14900    304.04745   -10528.619            0   -9623.2178    11596.436    780.29714    9.2063328    9.2063328    9.2063328    66.963355 
   15000    310.31584   -10544.254            0   -9620.1861    6224.8476    781.39976    9.2106672    9.2106672    9.2106672    74.763578 
Loop time of 15.3178 on 16 procs for 1000 steps with 1000 atoms

Performance: 5.641 ns/day, 4.255 hours/ns, 65.284 timesteps/s
94.6% CPU use with 16 MPI tasks x no OpenMP threads

MPI task timing breakdown:
Section |  min time  |  avg time  |  max time  |%varavg| %total
---------------------------------------------------------------
Pair    | 1.6631     | 1.7453     | 1.8333     |   3.4 | 11.39
Neigh   | 0.59532    | 0.60957    | 0.63643    |   1.4 |  3.98
Comm    | 0.35088    | 0.44931    | 0.52296    |   7.4 |  2.93
Output  | 8.469      | 8.7232     | 12.486     |  32.9 | 56.95
Modify  | 0.020599   | 3.7835     | 4.0378     |  49.9 | 24.70
Other   |            | 0.006951   |            |       |  0.05

Nlocal:    62.5 ave 67 max 56 min
Histogram: 2 0 2 1 1 2 0 2 2 4
Nghost:    1864.5 ave 1893 max 1842 min
Histogram: 2 2 2 1 2 2 2 1 1 1
Neighs:    0 ave 0 max 0 min
Histogram: 16 0 0 0 0 0 0 0 0 0
FullNghs:  18894.9 ave 20554 max 16730 min
Histogram: 1 1 1 2 2 1 1 3 3 1

Total # of neighbors = 302318
Ave neighs/atom = 302.318
Neighbor list builds = 1000
Dangerous builds not checked
Setting up Verlet run ...
  Unit style    : real
  Current step  : 15000
  Time step     : 1
Per MPI rank memory allocation (min/avg/max) = 4.577 | 4.579 | 4.58 Mbytes
Step Temp E_pair E_mol TotEng Press Volume Lx Ly Lz S/CPU 
   15000    310.31584   -10544.254            0   -9620.1861    6224.8476    781.39976    9.2106672    9.2106672    9.2106672            0 
   15100    303.75391   -10522.575            0   -9618.0475    12229.521    783.02822    9.2170612    9.2170612    9.2170612    65.915535 
   15200    297.73092   -10501.901            0   -9615.3089   -6475.9116    785.29585    9.2259501    9.2259501    9.2259501    70.300996 
   15300    303.83592   -10519.595            0   -9614.8237    1901.1269    787.80484    9.2357652    9.2357652    9.2357652    80.570807 
   15400    302.06539   -10512.602            0    -9613.103   -3373.3321    790.41061    9.2459368    9.2459368    9.2459368    57.971059 
   15500    293.79535    -10484.59            0   -9609.7175   -24356.987    792.78245    9.2551759    9.2551759    9.2551759    78.704104 
   15600    296.56571   -10489.791            0   -9606.6689   -12770.636    794.33315    9.2612064    9.2612064    9.2612064    74.424023 
   15700    296.17338    -10485.15            0   -9603.1965   -20140.018     794.9305    9.2635273    9.2635273    9.2635273    61.571864 
   15800    311.38435   -10526.936            0   -9599.6862    -13560.61     794.2947     9.261057     9.261057     9.261057    73.320192 
   15900      297.739   -10480.751            0   -9594.1346   -17791.552    792.54528    9.2542528    9.2542528    9.2542528    60.027941 
   16000    306.67264   -10501.872            0    -9588.653    271.01618    789.74651    9.2433466    9.2433466    9.2433466    47.648539 
Loop time of 15.2725 on 16 procs for 1000 steps with 1000 atoms

Performance: 5.657 ns/day, 4.242 hours/ns, 65.477 timesteps/s
94.6% CPU use with 16 MPI tasks x no OpenMP threads

MPI task timing breakdown:
Section |  min time  |  avg time  |  max time  |%varavg| %total
---------------------------------------------------------------
Pair    | 1.6184     | 1.7049     | 1.7858     |   3.4 | 11.16
Neigh   | 0.58804    | 0.60633    | 0.6436     |   2.0 |  3.97
Comm    | 0.39074    | 0.47459    | 0.57535    |   7.9 |  3.11
Output  | 8.2935     | 8.5571     | 12.459     |  34.4 | 56.03
Modify  | 0.02075    | 3.9228     | 4.1863     |  50.9 | 25.69
Other   |            | 0.006883   |            |       |  0.05

Nlocal:    62.5 ave 69 max 59 min
Histogram: 2 0 3 4 5 0 0 0 1 1
Nghost:    1858.12 ave 1883 max 1839 min
Histogram: 2 0 3 2 2 5 0 0 1 1
Neighs:    0 ave 0 max 0 min
Histogram: 16 0 0 0 0 0 0 0 0 0
FullNghs:  18710.9 ave 20711 max 17592 min
Histogram: 2 2 3 4 3 0 0 0 1 1

Total # of neighbors = 299374
Ave neighs/atom = 299.374
Neighbor list builds = 1000
Dangerous builds not checked
Setting up Verlet run ...
  Unit style    : real
  Current step  : 16000
  Time step     : 1
Per MPI rank memory allocation (min/avg/max) = 4.577 | 4.579 | 4.58 Mbytes
Step Temp E_pair E_mol TotEng Press Volume Lx Ly Lz S/CPU 
   16000    306.67264   -10501.872            0    -9588.653    271.01618    789.74651    9.2433466    9.2433466    9.2433466            0 
   16100    304.84257   -10487.156            0    -9579.387    11949.255    786.44087    9.2304319    9.2304319    9.2304319    82.606676 
   16200    303.64878    -10472.11            0   -9567.8961    12645.194    783.72349    9.2197884    9.2197884    9.2197884     73.61008 
   16300    315.36988   -10496.045            0   -9556.9272    8756.4222    782.01997    9.2131035    9.2131035    9.2131035    53.724666 
   16400    305.71302   -10456.463            0   -9546.1022     12669.19    781.40547    9.2106896    9.2106896    9.2106896    82.885876 
   16500    309.43253   -10459.764            0   -9538.3264    12922.163    781.98932    9.2129831    9.2129831    9.2129831    78.804096 
   16600    311.03196   -10455.801            0   -9529.6009     15177.39    783.69014    9.2196577    9.2196577    9.2196577    56.249233 
   16700    312.48935   -10455.016            0   -9524.4762    7588.8736    786.45328    9.2304805    9.2304805    9.2304805    72.723245 
   16800    314.04099   -10455.289            0   -9520.1281    25.555994    789.79663    9.2435421    9.2435421    9.2435421    81.200024 
   16900    303.69551   -10420.069            0   -9515.7155   -19481.186    792.89858    9.2556277    9.2556277    9.2556277    53.489007 
   17000    312.24284   -10443.265            0   -9513.4587    -21731.62    794.98137    9.2637249    9.2637249    9.2637249    81.767538 
Loop time of 14.3828 on 16 procs for 1000 steps with 1000 atoms

Performance: 6.007 ns/day, 3.995 hours/ns, 69.527 timesteps/s
94.6% CPU use with 16 MPI tasks x no OpenMP threads

MPI task timing breakdown:
Section |  min time  |  avg time  |  max time  |%varavg| %total
---------------------------------------------------------------
Pair    | 1.6617     | 1.724      | 1.8164     |   3.7 | 11.99
Neigh   | 0.58604    | 0.60745    | 0.63957    |   1.8 |  4.22
Comm    | 0.3693     | 0.46649    | 0.54527    |   8.0 |  3.24
Output  | 7.8977     | 8.1296     | 11.557     |  31.0 | 56.52
Modify  | 0.020413   | 3.4484     | 3.6802     |  47.7 | 23.98
Other   |            | 0.006907   |            |       |  0.05

Nlocal:    62.5 ave 67 max 59 min
Histogram: 3 0 4 1 0 3 1 1 2 1
Nghost:    1832.81 ave 1858 max 1802 min
Histogram: 2 1 0 2 2 0 3 3 2 1
Neighs:    0 ave 0 max 0 min
Histogram: 16 0 0 0 0 0 0 0 0 0
FullNghs:  18565.6 ave 19996 max 17344 min
Histogram: 3 0 3 2 2 1 1 1 0 3

Total # of neighbors = 297050
Ave neighs/atom = 297.05
Neighbor list builds = 1000
Dangerous builds not checked
Setting up Verlet run ...
  Unit style    : real
  Current step  : 17000
  Time step     : 1
Per MPI rank memory allocation (min/avg/max) = 4.577 | 4.579 | 4.58 Mbytes
Step Temp E_pair E_mol TotEng Press Volume Lx Ly Lz S/CPU 
   17000    312.24284   -10443.265            0   -9513.4587    -21731.62    794.98137    9.2637249    9.2637249    9.2637249            0 
   17100    306.03713   -10423.659            0   -9512.3329   -22622.318    795.61358    9.2661799    9.2661799    9.2661799    61.397705 
   17200    310.04272    -10435.87            0   -9512.6154   -11466.463    794.81068    9.2630619    9.2630619    9.2630619    60.100588 
   17300    308.91704   -10434.244            0   -9514.3414    133.74441    793.25363    9.2570091    9.2570091    9.2570091    59.100033 
   17400    313.71554    -10453.88            0   -9519.6887    1976.9217     791.1705    9.2488988    9.2488988    9.2488988    62.328927 
   17500    309.71937   -10450.504            0   -9528.2129   -15632.297    788.82647    9.2397558    9.2397558    9.2397558    61.736987 
   17600    305.34991   -10449.915            0    -9540.635    2912.8986    785.82789    9.2280331    9.2280331    9.2280331     75.47746 
   17700    303.07369   -10457.157            0    -9554.655   -7962.0253    782.69819    9.2157661    9.2157661    9.2157661    41.079734 
   17800    305.99202   -10479.793            0   -9568.6014    13086.939    779.51032    9.2032374    9.2032374    9.2032374    69.989558 
   17900    303.46309   -10483.291            0   -9579.6294    11590.152    777.16172    9.1939852    9.1939852    9.1939852    57.041905 
   18000    302.11589   -10488.639            0   -9588.9895    18427.905    775.83818     9.188763     9.188763     9.188763    61.027993 
Loop time of 16.7885 on 16 procs for 1000 steps with 1000 atoms

Performance: 5.146 ns/day, 4.663 hours/ns, 59.565 timesteps/s
94.5% CPU use with 16 MPI tasks x no OpenMP threads

MPI task timing breakdown:
Section |  min time  |  avg time  |  max time  |%varavg| %total
---------------------------------------------------------------
Pair    | 1.6493     | 1.7207     | 1.7936     |   3.3 | 10.25
Neigh   | 0.58986    | 0.6072     | 0.64063    |   1.6 |  3.62
Comm    | 0.39144    | 0.47057    | 0.55849    |   7.1 |  2.80
Output  | 9.0267     | 9.3382     | 13.962     |  39.1 | 55.62
Modify  | 0.02047    | 4.6449     | 4.9564     |  55.4 | 27.67
Other   |            | 0.006877   |            |       |  0.04

Nlocal:    62.5 ave 67 max 56 min
Histogram: 1 0 1 1 2 2 4 2 0 3
Nghost:    1874.88 ave 1887 max 1864 min
Histogram: 3 2 1 1 2 1 3 0 0 3
Neighs:    0 ave 0 max 0 min
Histogram: 16 0 0 0 0 0 0 0 0 0
FullNghs:  19021.5 ave 20319 max 16984 min
Histogram: 1 0 1 1 2 2 4 1 1 3

Total # of neighbors = 304344
Ave neighs/atom = 304.344
Neighbor list builds = 1000
Dangerous builds not checked
Setting up Verlet run ...
  Unit style    : real
  Current step  : 18000
  Time step     : 1
Per MPI rank memory allocation (min/avg/max) = 4.577 | 4.579 | 4.58 Mbytes
Step Temp E_pair E_mol TotEng Press Volume Lx Ly Lz S/CPU 
   18000    302.11589   -10488.639            0   -9588.9895    18427.905    775.83818     9.188763     9.188763     9.188763            0 
   18100    299.55504   -10491.299            0   -9599.2756    10907.865    775.28554    9.1865807    9.1865807    9.1865807    69.039093 
   18200    307.42159   -10523.591            0   -9608.1424    737.55985    775.43354    9.1871652    9.1871652    9.1871652    57.765126 
   18300    297.56599   -10502.102            0   -9616.0011    16539.789    776.37484    9.1908812    9.1908812    9.1908812    68.658456 
   18400    294.41278   -10499.713            0   -9623.0024    7952.5431    778.25672    9.1983012    9.1983012    9.1983012    72.072845 
   18500    289.18043   -10488.016            0   -9626.8859    2831.8582    780.65694    9.2077476    9.2077476    9.2077476     62.55338 
   18600    298.81865   -10520.355            0   -9630.5239    1564.4756    783.07077    9.2172282    9.2172282    9.2172282    63.648486 
   18700    297.92624   -10520.639            0   -9633.4652   -4074.4944    785.93858    9.2284664    9.2284664    9.2284664    73.991454 
   18800    291.62476   -10502.381            0   -9633.9722   -3891.6586    788.80078    9.2396555    9.2396555    9.2396555    62.415349 
   18900    292.86692    -10506.21            0   -9634.1024    6776.3839    791.49788    9.2501743    9.2501743    9.2501743    78.998695 
   19000    291.28676   -10498.071            0    -9630.669   -15021.456    793.90632    9.2595473    9.2595473    9.2595473    70.423697 
Loop time of 14.8329 on 16 procs for 1000 steps with 1000 atoms

Performance: 5.825 ns/day, 4.120 hours/ns, 67.418 timesteps/s
94.6% CPU use with 16 MPI tasks x no OpenMP threads

MPI task timing breakdown:
Section |  min time  |  avg time  |  max time  |%varavg| %total
---------------------------------------------------------------
Pair    | 1.6667     | 1.7421     | 1.8149     |   2.6 | 11.74
Neigh   | 0.59468    | 0.60894    | 0.63523    |   1.4 |  4.11
Comm    | 0.36761    | 0.4459     | 0.51708    |   5.8 |  3.01
Output  | 7.9077     | 8.1671     | 12.008     |  34.7 | 55.06
Modify  | 0.020729   | 3.8619     | 4.1212     |  50.5 | 26.04
Other   |            | 0.006927   |            |       |  0.05

Nlocal:    62.5 ave 69 max 57 min
Histogram: 3 3 1 1 0 1 3 0 2 2
Nghost:    1838.69 ave 1866 max 1821 min
Histogram: 4 2 2 1 1 0 3 0 1 2
Neighs:    0 ave 0 max 0 min
Histogram: 16 0 0 0 0 0 0 0 0 0
FullNghs:  18591.9 ave 20493 max 16883 min
Histogram: 2 4 1 1 0 1 2 2 1 2

Total # of neighbors = 297470
Ave neighs/atom = 297.47
Neighbor list builds = 1000
Dangerous builds not checked
Setting up Verlet run ...
  Unit style    : real
  Current step  : 19000
  Time step     : 1
Per MPI rank memory allocation (min/avg/max) = 4.577 | 4.579 | 4.58 Mbytes
Step Temp E_pair E_mol TotEng Press Volume Lx Ly Lz S/CPU 
   19000    291.28676   -10498.071            0    -9630.669   -15021.456    793.90632    9.2595473    9.2595473    9.2595473            0 
   19100    295.72996   -10506.349            0   -9625.7161   -27462.518    795.11369    9.2642389    9.2642389    9.2642389    70.178352 
   19200    293.42609   -10492.099            0   -9618.3262   -23536.569    794.96981      9.26368      9.26368      9.26368    50.407006 
   19300    301.85207   -10508.527            0   -9609.6627   -628.61788    793.91067    9.2595642    9.2595642    9.2595642    59.004937 
   19400    294.06542   -10475.265            0   -9599.5886   -12121.623     792.1433     9.252688     9.252688     9.252688    59.700575 
   19500    301.65599    -10487.14            0   -9588.8603    711.26431    790.16858     9.244993     9.244993     9.244993    63.018908 
   19600    313.06883   -10510.835            0   -9578.5692   -6838.1926     788.1355    9.2370571    9.2370571    9.2370571    72.656964 
   19700    310.59095   -10494.991            0   -9570.1046    9527.0888    785.75107    9.2277325    9.2277325    9.2277325     60.56815 
   19800    312.66252   -10494.438            0   -9563.3827   -9575.3476      783.405    9.2185393    9.2185393    9.2185393    71.358036 
   19900    306.18037    -10470.76            0   -9559.0071   -9912.6377    781.22431    9.2099778    9.2099778    9.2099778    77.989704 
   20000    307.59571   -10473.223            0   -9557.2555    14595.571    779.43304    9.2029332    9.2029332    9.2029332    63.180728 
Loop time of 15.6592 on 16 procs for 1000 steps with 1000 atoms

Performance: 5.518 ns/day, 4.350 hours/ns, 63.860 timesteps/s
94.6% CPU use with 16 MPI tasks x no OpenMP threads

MPI task timing breakdown:
Section |  min time  |  avg time  |  max time  |%varavg| %total
---------------------------------------------------------------
Pair    | 1.6389     | 1.7112     | 1.8038     |   3.8 | 10.93
Neigh   | 0.58636    | 0.60598    | 0.64262    |   1.8 |  3.87
Comm    | 0.38265    | 0.49005    | 0.58012    |   8.3 |  3.13
Output  | 8.5545     | 8.8244     | 12.824     |  34.8 | 56.35
Modify  | 0.020455   | 4.0206     | 4.2905     |  51.5 | 25.68
Other   |            | 0.006892   |            |       |  0.04

Nlocal:    62.5 ave 69 max 58 min
Histogram: 2 2 2 3 1 4 0 0 1 1
Nghost:    1862.12 ave 1880 max 1841 min
Histogram: 1 0 1 2 3 4 1 1 1 2
Neighs:    0 ave 0 max 0 min
Histogram: 16 0 0 0 0 0 0 0 0 0
FullNghs:  18920 ave 21062 max 17585 min
Histogram: 2 2 2 4 2 2 0 1 0 1

Total # of neighbors = 302720
Ave neighs/atom = 302.72
Neighbor list builds = 1000
Dangerous builds not checked
Setting up Verlet run ...
  Unit style    : real
  Current step  : 20000
  Time step     : 1
Per MPI rank memory allocation (min/avg/max) = 4.577 | 4.579 | 4.58 Mbytes
Step Temp E_pair E_mol TotEng Press Volume Lx Ly Lz S/CPU 
   20000    307.59571   -10473.223            0   -9557.2555    14595.571    779.43304    9.2029332    9.2029332    9.2029332            0 
   20100    311.24257   -10486.615            0   -9559.7873    11279.782    778.54039    9.1994186    9.1994186    9.1994186    62.265382 
   20200    311.00537   -10488.689            0    -9562.568    3585.4616    778.31717    9.1985393    9.1985393    9.1985393    66.052063 
   20300    314.99971   -10506.579            0   -9568.5638    9327.2659    778.51375    9.1993137    9.1993137    9.1993137    55.672005 
   20400    312.41996   -10504.902            0   -9574.5691    11189.557    779.66206    9.2038345    9.2038345    9.2038345      74.6557 
   20500    304.55015    -10487.61            0   -9580.7114    9361.0667    781.51123    9.2111052    9.2111052    9.2111052    53.856753 
   20600    313.89618     -10522.1            0   -9587.3712   -12778.144    783.74566    9.2198753    9.2198753    9.2198753    81.793832 
   20700    303.11821   -10495.565            0   -9592.9307   -4873.0331    785.70096    9.2275363    9.2275363    9.2275363    73.855447 
   20800     301.6337   -10496.067            0   -9597.8536   -9957.1398    786.70442    9.2314629    9.2314629    9.2314629    63.940351 
   20900    288.24347   -10456.863            0   -9598.5234    7408.3566    787.11634    9.2330738    9.2330738    9.2330738    64.308735 
   21000     297.7143   -10487.437            0    -9600.895   -4529.9829    787.35872    9.2340215    9.2340215    9.2340215    75.379252 
Loop time of 15.1347 on 16 procs for 1000 steps with 1000 atoms

Performance: 5.709 ns/day, 4.204 hours/ns, 66.074 timesteps/s
94.6% CPU use with 16 MPI tasks x no OpenMP threads

MPI task timing breakdown:
Section |  min time  |  avg time  |  max time  |%varavg| %total
---------------------------------------------------------------
Pair    | 1.6563     | 1.7434     | 1.7995     |   2.9 | 11.52
Neigh   | 0.59202    | 0.60891    | 0.64164    |   1.5 |  4.02
Comm    | 0.41352    | 0.47066    | 0.57518    |   6.6 |  3.11
Output  | 8.1839     | 8.4433     | 12.284     |  34.1 | 55.79
Modify  | 0.020415   | 3.8615     | 4.1207     |  50.5 | 25.51
Other   |            | 0.006885   |            |       |  0.05

Nlocal:    62.5 ave 68 max 59 min
Histogram: 2 2 4 2 1 0 2 1 1 1
Nghost:    1847.38 ave 1870 max 1816 min
Histogram: 1 0 1 1 4 2 1 2 2 2
Neighs:    0 ave 0 max 0 min
Histogram: 16 0 0 0 0 0 0 0 0 0
FullNghs:  18755 ave 20759 max 17635 min
Histogram: 3 4 3 1 0 0 3 0 1 1

Total # of neighbors = 300080
Ave neighs/atom = 300.08
Neighbor list builds = 1000
Dangerous builds not checked
Setting up Verlet run ...
  Unit style    : real
  Current step  : 21000
  Time step     : 1
Per MPI rank memory allocation (min/avg/max) = 4.577 | 4.579 | 4.58 Mbytes
Step Temp E_pair E_mol TotEng Press Volume Lx Ly Lz S/CPU 
   21000     297.7143   -10487.437            0    -9600.895   -4529.9829    787.35872    9.2340215    9.2340215    9.2340215            0 
   21100    301.68176   -10501.342            0   -9602.9852   -11815.143    787.26381    9.2336505    9.2336505    9.2336505    56.708509 
   21200    296.57544   -10487.785            0   -9604.6336   -4230.3482    786.99875    9.2326141    9.2326141    9.2326141    73.737255 
   21300    303.23081   -10508.312            0   -9605.3422    3745.2787    786.49539    9.2306452    9.2306452    9.2306452    70.187161 
   21400    309.58342   -10529.596            0   -9607.7094    -8136.855    785.54916     9.226942     9.226942     9.226942    62.237252 
   21500    297.96425   -10496.296            0   -9609.0092   -2200.7689    784.21722    9.2217241    9.2217241    9.2217241    65.042389 
   21600    300.93698   -10505.549            0   -9609.4099     3871.859    782.75276    9.2159803    9.2159803    9.2159803    72.578668 
   21700    297.43401   -10496.022            0   -9610.3148    1515.3324    781.29152    9.2102419    9.2102419    9.2102419    56.579952 
   21800    302.46504   -10511.964            0   -9611.2752    15296.275    779.94275    9.2049389    9.2049389    9.2049389    70.865666 
   21900    297.32626   -10496.013            0   -9610.6258    1639.3138    779.03544    9.2013681    9.2013681    9.2013681    61.671287 
   22000    308.88923   -10531.443            0    -9611.624    5994.6031    778.09979    9.1976829    9.1976829    9.1976829    77.646805 
Loop time of 15.1543 on 16 procs for 1000 steps with 1000 atoms

Performance: 5.701 ns/day, 4.210 hours/ns, 65.988 timesteps/s
94.7% CPU use with 16 MPI tasks x no OpenMP threads

MPI task timing breakdown:
Section |  min time  |  avg time  |  max time  |%varavg| %total
---------------------------------------------------------------
Pair    | 1.6858     | 1.7366     | 1.8267     |   2.8 | 11.46
Neigh   | 0.59068    | 0.60923    | 0.6312     |   1.5 |  4.02
Comm    | 0.35938    | 0.45894    | 0.52199    |   6.4 |  3.03
Output  | 8.2373     | 8.4956     | 12.322     |  33.9 | 56.06
Modify  | 0.020367   | 3.8471     | 4.1053     |  50.4 | 25.39
Other   |            | 0.006894   |            |       |  0.05

Nlocal:    62.5 ave 69 max 57 min
Histogram: 2 2 1 1 2 3 2 1 1 1
Nghost:    1872.19 ave 1892 max 1844 min
Histogram: 1 0 0 3 2 1 4 2 1 2
Neighs:    0 ave 0 max 0 min
Histogram: 16 0 0 0 0 0 0 0 0 0
FullNghs:  18979 ave 20923 max 17189 min
Histogram: 2 2 1 0 3 1 2 4 0 1

Total # of neighbors = 303664
Ave neighs/atom = 303.664
Neighbor list builds = 1000
Dangerous builds not checked
Setting up Verlet run ...
  Unit style    : real
  Current step  : 22000
  Time step     : 1
Per MPI rank memory allocation (min/avg/max) = 4.578 | 4.579 | 4.58 Mbytes
Step Temp E_pair E_mol TotEng Press Volume Lx Ly Lz S/CPU 
   22000    308.88923   -10531.443            0    -9611.624    5994.6031    778.09979    9.1976829    9.1976829    9.1976829            0 
   22100    298.62462   -10501.317            0   -9612.0643    9602.4005    777.44221    9.1950912    9.1950912    9.1950912    67.374088 
   22200    303.38363   -10517.438            0    -9614.013    2676.8671    777.26968    9.1944109    9.1944109    9.1944109    55.442057 
   22300    306.15876   -10528.826            0   -9617.1371    16508.025    777.52971    9.1954361    9.1954361    9.1954361    66.912078 
   22400    298.95463   -10511.827            0   -9621.5911    6324.1007     778.7375    9.2001949    9.2001949    9.2001949    77.954619 
   22500    287.53062   -10483.782            0   -9627.5646    7009.2618    780.23588    9.2060919    9.2060919    9.2060919    60.335096 
   22600    291.67984   -10501.592            0   -9633.0196   -1746.5472    781.97779    9.2129378    9.2129378    9.2129378    77.536787 
   22700    284.83828   -10487.237            0   -9639.0373   -10629.909    783.63238    9.2194311    9.2194311    9.2194311    57.840596 
   22800    292.76802   -10515.889            0   -9644.0757   -1567.7258    785.01137    9.2248359    9.2248359    9.2248359     71.73433 
   22900    281.43069    -10485.07            0   -9647.0176   -11918.626    786.28198    9.2298103    9.2298103    9.2298103    75.883238 
   23000    290.14395   -10512.849            0   -9648.8498   -11071.786    786.96164    9.2324689    9.2324689    9.2324689    53.274684 
Loop time of 15.3302 on 16 procs for 1000 steps with 1000 atoms

Performance: 5.636 ns/day, 4.258 hours/ns, 65.231 timesteps/s
94.6% CPU use with 16 MPI tasks x no OpenMP threads

MPI task timing breakdown:
Section |  min time  |  avg time  |  max time  |%varavg| %total
---------------------------------------------------------------
Pair    | 1.6487     | 1.7491     | 1.8184     |   3.6 | 11.41
Neigh   | 0.59058    | 0.60896    | 0.64379    |   1.7 |  3.97
Comm    | 0.37615    | 0.48011    | 0.57936    |   8.3 |  3.13
Output  | 8.5812     | 8.8269     | 12.464     |  31.6 | 57.58
Modify  | 0.020439   | 3.6582     | 3.9038     |  49.1 | 23.86
Other   |            | 0.006907   |            |       |  0.05

Nlocal:    62.5 ave 66 max 58 min
Histogram: 1 2 0 3 0 2 1 3 2 2
Nghost:    1851.81 ave 1872 max 1835 min
Histogram: 1 1 3 2 2 4 1 1 0 1
Neighs:    0 ave 0 max 0 min
Histogram: 16 0 0 0 0 0 0 0 0 0
FullNghs:  18750.6 ave 19864 max 17322 min
Histogram: 1 2 0 2 2 1 1 3 2 2

Total # of neighbors = 300010
Ave neighs/atom = 300.01
Neighbor list builds = 1000
Dangerous builds not checked
Setting up Verlet run ...
  Unit style    : real
  Current step  : 23000
  Time step     : 1
Per MPI rank memory allocation (min/avg/max) = 4.578 | 4.579 | 4.58 Mbytes
Step Temp E_pair E_mol TotEng Press Volume Lx Ly Lz S/CPU 
   23000    290.14395   -10512.849            0   -9648.8498   -11071.786    786.96164    9.2324689    9.2324689    9.2324689            0 
   23100    292.71152   -10520.147            0   -9648.5025   -4982.2184    786.67178    9.2313353    9.2313353    9.2313353    69.824745 
   23200    297.17058   -10531.068            0   -9646.1449   -6110.2137    785.51234    9.2267978    9.2267978    9.2267978    72.909508 
   23300    306.03889   -10553.512            0   -9642.1807    977.85104    783.94416    9.2206537    9.2206537    9.2206537    60.450358 
   23400    302.45992   -10537.777            0   -9637.1032   -8402.6643    781.92771    9.2127411    9.2127411    9.2127411    73.666854 
   23500    306.46195   -10542.693            0   -9630.1015    12401.091    779.63996    9.2037475    9.2037475    9.2037475    56.921434 
   23600    300.15491   -10516.139            0   -9622.3289    2518.6028    777.95022    9.1970935    9.1970935    9.1970935    80.876252 
   23700    307.49877   -10528.968            0   -9613.2888    3019.0715    777.27711    9.1944402    9.1944402    9.1944402    51.711375 
   23800    315.25434   -10544.405            0    -9605.631    13240.085    777.40808    9.1949566    9.1949566    9.1949566    54.166872 
   23900    294.91268   -10475.081            0   -9596.8815     10995.08    778.62734    9.1997611    9.1997611    9.1997611    66.068472 
   24000    309.56887    -10513.64            0   -9591.7963   -4628.3561    780.81432    9.2083663    9.2083663    9.2083663    52.071054 
Loop time of 16.0227 on 16 procs for 1000 steps with 1000 atoms

Performance: 5.392 ns/day, 4.451 hours/ns, 62.411 timesteps/s
94.6% CPU use with 16 MPI tasks x no OpenMP threads

MPI task timing breakdown:
Section |  min time  |  avg time  |  max time  |%varavg| %total
---------------------------------------------------------------
Pair    | 1.6916     | 1.7461     | 1.8159     |   2.6 | 10.90
Neigh   | 0.59306    | 0.60856    | 0.62952    |   1.4 |  3.80
Comm    | 0.39856    | 0.47229    | 0.54278    |   5.8 |  2.95
Output  | 8.8976     | 9.1675     | 13.168     |  34.1 | 57.22
Modify  | 0.020572   | 4.0214     | 4.2913     |  51.5 | 25.10
Other   |            | 0.00693    |            |       |  0.04

Nlocal:    62.5 ave 66 max 57 min
Histogram: 1 1 1 2 0 1 3 1 5 1
Nghost:    1873.12 ave 1897 max 1856 min
Histogram: 1 2 2 4 0 4 0 2 0 1
Neighs:    0 ave 0 max 0 min
Histogram: 16 0 0 0 0 0 0 0 0 0
FullNghs:  18887.1 ave 19913 max 17151 min
Histogram: 1 1 1 2 0 1 2 2 2 4

Total # of neighbors = 302194
Ave neighs/atom = 302.194
Neighbor list builds = 1000
Dangerous builds not checked
Setting up Verlet run ...
  Unit style    : real
  Current step  : 24000
  Time step     : 1
Per MPI rank memory allocation (min/avg/max) = 4.578 | 4.579 | 4.58 Mbytes
Step Temp E_pair E_mol TotEng Press Volume Lx Ly Lz S/CPU 
   24000    309.56887    -10513.64            0   -9591.7963   -4628.3561    780.81432    9.2083663    9.2083663    9.2083663            0 
   24100    298.88748   -10476.028            0   -9585.9922    7056.4138    783.57947    9.2192236    9.2192236    9.2192236    80.944562 
   24200    295.90407   -10462.517            0   -9581.3654   -6103.2353    786.70457    9.2314635    9.2314635    9.2314635    63.262368 
   24300    297.89939   -10463.439            0   -9576.3452   -20040.641    789.87183    9.2438355    9.2438355    9.2438355    70.073574 
   24400     307.3582   -10487.176            0   -9571.9157   -8996.9775    792.56939    9.2543467    9.2543467    9.2543467    61.807005 
   24500    314.27325   -10502.803            0   -9566.9513   -13813.737    794.52553     9.261954     9.261954     9.261954    64.587034 
   24600    320.67399    -10518.91            0   -9563.9979    -28711.43    796.00651    9.2677051    9.2677051    9.2677051    63.101392 
   24700      323.955    -10525.75            0   -9561.0669   -2929.9773    796.57949    9.2699283    9.2699283    9.2699283    70.942854 
   24800    303.11107   -10460.934            0   -9558.3211   -17685.063     796.4624     9.269474     9.269474     9.269474    56.744736 
   24900    301.42393     -10456.1            0   -9558.5107   -7570.5406    795.49505    9.2657198    9.2657198    9.2657198    53.578909 
   25000    304.71995   -10467.208            0   -9559.8041   -5977.2086    793.78014    9.2590567    9.2590567    9.2590567    81.919998 
Loop time of 15.2532 on 16 procs for 1000 steps with 1000 atoms

Performance: 5.664 ns/day, 4.237 hours/ns, 65.560 timesteps/s
94.6% CPU use with 16 MPI tasks x no OpenMP threads

MPI task timing breakdown:
Section |  min time  |  avg time  |  max time  |%varavg| %total
---------------------------------------------------------------
Pair    | 1.6271     | 1.6967     | 1.7562     |   3.0 | 11.12
Neigh   | 0.59001    | 0.60406    | 0.62883    |   1.2 |  3.96
Comm    | 0.37437    | 0.44446    | 0.52786    |   6.5 |  2.91
Output  | 8.3224     | 8.5852     | 12.481     |  34.3 | 56.28
Modify  | 0.020367   | 3.9159     | 4.1788     |  50.8 | 25.67
Other   |            | 0.006888   |            |       |  0.05

Nlocal:    62.5 ave 69 max 58 min
Histogram: 3 0 1 5 2 2 2 0 0 1
Nghost:    1837.44 ave 1850 max 1827 min
Histogram: 3 1 0 2 1 4 3 0 1 1
Neighs:    0 ave 0 max 0 min
Histogram: 16 0 0 0 0 0 0 0 0 0
FullNghs:  18587.8 ave 20534 max 17131 min
Histogram: 2 1 1 3 3 3 2 0 0 1

Total # of neighbors = 297404
Ave neighs/atom = 297.404
Neighbor list builds = 1000
Dangerous builds not checked
Setting up Verlet run ...
  Unit style    : real
  Current step  : 25000
  Time step     : 1
Per MPI rank memory allocation (min/avg/max) = 4.578 | 4.579 | 4.58 Mbytes
Step Temp E_pair E_mol TotEng Press Volume Lx Ly Lz S/CPU 
   25000    304.71995   -10467.208            0   -9559.8041   -5977.2086    793.78014    9.2590567    9.2590567    9.2590567            0 
   25100    318.04012   -10509.499            0   -9562.4297   -3827.1785    791.41222    9.2498406    9.2498406    9.2498406     52.26322 
   25200    298.31926   -10454.944            0   -9566.6006    8482.0982    788.85635    9.2398724    9.2398724    9.2398724    69.229313 
   25300    305.00127   -10483.297            0   -9575.0553    14762.614    786.81859    9.2319095    9.2319095    9.2319095     54.29464 
   25400    296.56335   -10469.572            0   -9586.4569   -12666.504    785.42405    9.2264521    9.2264521    9.2264521    69.363631 
   25500    299.00097   -10490.829            0   -9600.4552   -1016.0817    783.62287    9.2193938    9.2193938    9.2193938    68.028565 
   25600      297.637   -10498.949            0   -9612.6369   -4010.4896    781.58438    9.2113925    9.2113925    9.2113925    56.762672 
   25700    295.46173   -10502.529            0   -9622.6942     6920.892    779.68143    9.2039107    9.2039107    9.2039107    66.202854 
   25800    293.70628   -10506.436            0    -9631.829    5426.4302    778.72331     9.200139     9.200139     9.200139    62.237358 
   25900    305.36654   -10549.155            0   -9639.8258    13546.233    778.72814    9.2001581    9.2001581    9.2001581    58.950531 
   26000    302.96317   -10547.518            0   -9645.3454    3439.4616    779.29217    9.2023788    9.2023788    9.2023788     61.05864 
Loop time of 16.3244 on 16 procs for 1000 steps with 1000 atoms

Performance: 5.293 ns/day, 4.535 hours/ns, 61.258 timesteps/s
94.5% CPU use with 16 MPI tasks x no OpenMP threads

MPI task timing breakdown:
Section |  min time  |  avg time  |  max time  |%varavg| %total
---------------------------------------------------------------
Pair    | 1.5976     | 1.7314     | 1.7934     |   3.6 | 10.61
Neigh   | 0.58025    | 0.60789    | 0.64349    |   1.8 |  3.72
Comm    | 0.4087     | 0.47206    | 0.63281    |   8.1 |  2.89
Output  | 9.6913     | 9.9314     | 13.485     |  29.1 | 60.84
Modify  | 0.020709   | 3.5748     | 3.8148     |  48.5 | 21.90
Other   |            | 0.006877   |            |       |  0.04

Nlocal:    62.5 ave 69 max 57 min
Histogram: 1 2 1 2 3 2 3 1 0 1
Nghost:    1867.5 ave 1889 max 1843 min
Histogram: 2 1 1 1 1 4 0 3 2 1
Neighs:    0 ave 0 max 0 min
Histogram: 16 0 0 0 0 0 0 0 0 0
FullNghs:  18940 ave 20919 max 17204 min
Histogram: 1 2 0 3 3 1 3 2 0 1

Total # of neighbors = 303040
Ave neighs/atom = 303.04
Neighbor list builds = 1000
Dangerous builds not checked
Setting up Verlet run ...
  Unit style    : real
  Current step  : 26000
  Time step     : 1
Per MPI rank memory allocation (min/avg/max) = 4.578 | 4.579 | 4.58 Mbytes
Step Temp E_pair E_mol TotEng Press Volume Lx Ly Lz S/CPU 
   26000    302.96317   -10547.518            0   -9645.3454    3439.4616    779.29217    9.2023788    9.2023788    9.2023788            0 
   26100    294.74076   -10527.257            0   -9649.5691    10613.268    780.19989    9.2059504    9.2059504    9.2059504      66.1156 
   26200    303.55112   -10557.872            0   -9653.9491   -3639.6163    781.55184    9.2112647    9.2112647    9.2112647    73.645131 
   26300    292.35022   -10526.121            0   -9655.5515   -3276.3368    782.95574    9.2167768    9.2167768    9.2167768    49.792328 
   26400     280.5013   -10491.608            0   -9656.3228    5498.0832    784.43349    9.2225718    9.2225718    9.2225718    74.643493 
   26500    285.63645   -10506.581            0   -9656.0045    -2160.778      785.668    9.2274073    9.2274073    9.2274073    89.806912 
   26600    300.81226   -10549.768            0   -9654.0005   -21557.179    786.52769    9.2307716    9.2307716    9.2307716    60.202103 
   26700    300.49844   -10545.633            0   -9650.8003   -19919.783    786.57074      9.23094      9.23094      9.23094    81.075412 
   26800    302.37266   -10545.216            0   -9644.8021   -18662.949    785.67517    9.2274353    9.2274353    9.2274353    61.093286 
   26900    294.81369   -10514.219            0   -9636.3144    8920.7052    783.74615    9.2198773    9.2198773    9.2198773    63.196696 
   27000    299.03285   -10515.619            0   -9625.1506    5071.7029    781.86091    9.2124788    9.2124788    9.2124788     75.41031 
Loop time of 14.7717 on 16 procs for 1000 steps with 1000 atoms

Performance: 5.849 ns/day, 4.103 hours/ns, 67.697 timesteps/s
94.6% CPU use with 16 MPI tasks x no OpenMP threads

MPI task timing breakdown:
Section |  min time  |  avg time  |  max time  |%varavg| %total
---------------------------------------------------------------
Pair    | 1.7006     | 1.7348     | 1.7902     |   1.7 | 11.74
Neigh   | 0.59636    | 0.60792    | 0.64517    |   1.4 |  4.12
Comm    | 0.39069    | 0.45247    | 0.4837     |   4.0 |  3.06
Output  | 7.8928     | 8.1495     | 11.949     |  34.4 | 55.17
Modify  | 0.020512   | 3.8201     | 4.0767     |  50.2 | 25.86
Other   |            | 0.006901   |            |       |  0.05

Nlocal:    62.5 ave 67 max 58 min
Histogram: 1 4 0 2 1 0 2 3 2 1
Nghost:    1864 ave 1875 max 1842 min
Histogram: 1 0 2 0 2 1 1 3 1 5
Neighs:    0 ave 0 max 0 min
Histogram: 16 0 0 0 0 0 0 0 0 0
FullNghs:  18881.6 ave 20559 max 17578 min
Histogram: 5 0 1 2 0 1 2 3 1 1

Total # of neighbors = 302106
Ave neighs/atom = 302.106
Neighbor list builds = 1000
Dangerous builds not checked
Setting up Verlet run ...
  Unit style    : real
  Current step  : 27000
  Time step     : 1
Per MPI rank memory allocation (min/avg/max) = 4.578 | 4.579 | 4.58 Mbytes
Step Temp E_pair E_mol TotEng Press Volume Lx Ly Lz S/CPU 
   27000    299.03285   -10515.619            0   -9625.1506    5071.7029    781.86091    9.2124788    9.2124788    9.2124788            0 
   27100    300.94003   -10510.827            0   -9614.6787     8123.021     780.3549      9.20656      9.20656      9.20656     65.42902 
   27200    306.37368   -10515.509            0   -9603.1802   -2169.5786    779.61796     9.203661     9.203661     9.203661    64.175629 
   27300    299.64052   -10485.138            0   -9592.8595    15962.435    779.38381    9.2027395    9.2027395    9.2027395    67.396731 
   27400    305.05517   -10494.342            0   -9585.9395    8326.9091    779.83206    9.2045034    9.2045034    9.2045034    58.285634 
   27500    311.62102   -10507.451            0   -9579.4966    3744.0185    780.88135    9.2086298    9.2086298    9.2086298     69.73749 
   27600    310.42595   -10498.794            0   -9574.3982   -5772.6583    782.38378    9.2145319    9.2145319    9.2145319    52.025649 
   27700    297.50874   -10456.707            0   -9570.7771    6531.3484    783.65029    9.2195014    9.2195014    9.2195014    79.472046 
   27800    297.64426   -10456.392            0    -9570.058    -4670.265    785.57816    9.2270555    9.2270555    9.2270555    78.122638 
   27900    305.92587   -10482.178            0   -9571.1826   -3568.8539     787.6523     9.235169     9.235169     9.235169    58.209253 
   28000    295.11728   -10450.663            0   -9571.8539   -1031.0542    789.69398    9.2431417    9.2431417    9.2431417    71.430361 
Loop time of 15.2984 on 16 procs for 1000 steps with 1000 atoms

Performance: 5.648 ns/day, 4.250 hours/ns, 65.366 timesteps/s
[...]
  383700    290.72329   -11473.747            0   -10608.023     6191.031    749.78704    9.0847429    9.0847429    9.0847429    53.972619 
  383800    303.51084   -11504.334            0   -10600.531   -2002.7898    749.29421    9.0827521    9.0827521    9.0827521    73.922633 
  383900     290.3944    -11453.86            0   -10589.115    7761.5732    748.84949    9.0809548    9.0809548    9.0809548       50.743 
  384000     298.4487   -11466.413            0   -10577.683     4466.537    748.78292    9.0806857    9.0806857    9.0806857     71.34284 
  384100    309.72567   -11489.653            0   -10567.343    3792.2516    748.98653    9.0815087    9.0815087    9.0815087    67.953058 
  384200    298.40793   -11444.416            0   -10555.808   -2006.5525    749.45682     9.083409     9.083409     9.083409    60.375672 
  384300    299.01215   -11438.289            0   -10547.882   -5053.6232    750.12112     9.086092     9.086092     9.086092    80.371481 
  384400    306.21987   -11454.494            0   -10542.624   -4602.1075    750.80225    9.0888413    9.0888413    9.0888413    62.828074 
  384500    298.05119   -11423.556            0    -10536.01    1562.7381    751.34492    9.0910306    9.0910306    9.0910306    77.740524 
  384600    305.25271   -11442.455            0   -10533.464   -8417.9108    751.44911    9.0914508    9.0914508    9.0914508    76.184746 
  384700    306.65326   -11445.812            0   -10532.651   -7356.0009    751.17765    9.0903559    9.0903559    9.0903559    53.064666 
  384800     305.8008   -11441.787            0   -10531.165   -899.39793    750.84082     9.088997     9.088997     9.088997    56.696308 
  384900    301.34566   -11427.809            0   -10530.453   -1571.7491     750.4812    9.0875456    9.0875456    9.0875456    56.776871 
  385000    316.82079   -11476.408            0    -10532.97     2804.016    750.02909    9.0857204    9.0857204    9.0857204    66.700221 
  385100    307.59839   -11451.262            0   -10535.287     8454.816    749.67125    9.0842753    9.0842753    9.0842753    66.267998 
  385200    301.87725   -11437.531            0   -10538.592    3555.1681    749.47015    9.0834629    9.0834629    9.0834629    67.906781 
  385300    311.45436   -11473.736            0   -10546.278    41.080783    749.47617    9.0834872    9.0834872    9.0834872     81.77803 
  385400    302.92192   -11456.633            0   -10554.584   -3927.9252    749.58391    9.0839225    9.0839225    9.0839225     56.33365 
  385500    302.56391   -11466.581            0   -10565.597    2683.8959    749.80676    9.0848226    9.0848226    9.0848226    74.765115 
  385600    289.56547   -11440.316            0   -10578.039   -2924.4693    750.11621    9.0860722    9.0860722    9.0860722     70.28506 
  385700     292.7893   -11465.077            0     -10593.2    3979.8946    750.28278    9.0867447    9.0867447    9.0867447    49.893787 
  385800    298.40905   -11495.385            0   -10606.774   -5555.0685    750.19399    9.0863862    9.0863862    9.0863862     75.56763 
  385900    289.61509   -11476.923            0   -10614.499   -1735.1051    749.74895    9.0845891    9.0845891    9.0845891    71.450159 
  386000    291.26634   -11488.176            0   -10620.835   -4359.3124    749.22186    9.0824597    9.0824597    9.0824597    52.415002 
  386100    292.33629   -11493.844            0   -10623.317    5953.7544    748.60554    9.0799686    9.0799686    9.0799686    66.848005 
  386200    295.16936   -11501.889            0   -10622.925    7681.4998     748.1399    9.0780856    9.0780856    9.0780856     61.40445 
  386300    292.54294   -11492.553            0    -10621.41    199.47108    748.05877    9.0777574    9.0777574    9.0777574    88.472335 
  386400    291.67784   -11486.729            0   -10618.162    10415.918    748.32294    9.0788259    9.0788259    9.0788259    56.577298 
  386500    288.54921   -11473.056            0   -10613.805    9371.2234     748.8674    9.0810272    9.0810272    9.0810272    74.769109 
  386600    287.45271   -11464.653            0   -10608.667    3424.9395    749.71062    9.0844343    9.0844343    9.0844343    82.846258 
  386700    291.00909    -11470.07            0   -10603.494     203.6742    750.59928    9.0880222    9.0880222    9.0880222    54.421358 
  386800    291.81274    -11465.74            0   -10596.771   -7634.7169     751.1644    9.0903024    9.0903024    9.0903024    60.205863 
  386900    303.08932   -11493.773            0   -10591.225   -10983.671    751.28228    9.0907779    9.0907779    9.0907779    65.050532 
  387000    303.84947   -11489.562            0    -10584.75   -431.89339    750.98547    9.0895806    9.0895806    9.0895806    70.072263 
  387100    292.69143    -11449.97            0   -10578.385   -488.26804    750.41842    9.0872923    9.0872923    9.0872923    69.068733 
  387200    297.36618   -11459.352            0   -10573.846    4337.7347    749.69243    9.0843608    9.0843608    9.0843608    70.404013 
  387300    300.87317   -11464.783            0   -10568.834    10091.214    749.05697    9.0817934    9.0817934    9.0817934    62.246647 
  387400    299.26537   -11454.938            0   -10563.777   -1398.2504     748.8437    9.0809314    9.0809314    9.0809314    56.754624 
  387500    293.86337   -11434.378            0   -10559.303   -1006.6557    749.09833    9.0819605    9.0819605    9.0819605    83.790074 
  387600    290.85565   -11421.725            0   -10555.607    5108.1125    749.69379    9.0843663    9.0843663    9.0843663    73.193739 
  387700    293.30083   -11425.037            0   -10551.637    -9412.716    750.43846    9.0873731    9.0873731    9.0873731    59.454413 
  387800    300.85277   -11446.156            0   -10550.268   -1614.4421    751.02526    9.0897411    9.0897411    9.0897411    82.264292 
  387900    306.95886   -11460.873            0   -10546.802   -8265.1739    751.45871    9.0914895    9.0914895    9.0914895    60.080883 
  388000    303.04094    -11445.65            0   -10543.246   -7724.3026    751.50005    9.0916562    9.0916562    9.0916562    69.704975 
  388100    308.91929   -11460.508            0   -10540.599    9519.3273    751.12588    9.0901471    9.0901471    9.0901471    73.710154 
  388200    292.71511   -11407.558            0   -10535.903    4478.0226    750.53625    9.0877679    9.0877679    9.0877679    59.677348 
  388300     298.2726   -11419.805            0     -10531.6    7846.0229    749.97645    9.0855079    9.0855079    9.0855079     63.40439 
  388400    305.17784    -11433.63            0   -10524.863    5399.4024    749.81294    9.0848475    9.0848475    9.0848475    56.960656 
  388500    315.78339   -11458.767            0   -10518.418    7413.4952    750.07503    9.0859059    9.0859059    9.0859059    69.176517 
  388600    316.62174   -11453.618            0   -10510.773    2599.1044    750.72581    9.0885329    9.0885329    9.0885329    79.048237 
  388700    307.39276   -11417.896            0   -10502.533   -69.666667    751.65753    9.0922912    9.0922912    9.0922912    62.182295 
  388800    320.36757   -11449.326            0   -10495.326   -9015.2699    752.63603    9.0962349    9.0962349    9.0962349    78.721077 
  388900    309.88398   -11413.586            0   -10490.805   -7771.9055    753.28697    9.0988566    9.0988566    9.0988566    70.851319 
  389000    322.83729   -11448.932            0   -10487.578   -9127.8413    753.32601    9.0990137    9.0990137    9.0990137    65.577875 
  389100    302.09091   -11386.083            0   -10486.508   -7615.9859     752.8333    9.0970296    9.0970296    9.0970296    83.625142 
  389200    315.83472   -11430.167            0   -10489.665   -1809.2542     752.0924    9.0940443    9.0940443    9.0940443    50.098531 
  389300    309.89686   -11417.339            0   -10494.519   -3536.5519    751.13149    9.0901697    9.0901697    9.0901697    75.623123 
  389400    306.52343   -11416.519            0   -10503.745    7195.6492    750.07371    9.0859006    9.0859006    9.0859006    63.184258 
  389500    305.47347   -11424.869            0   -10515.221    10788.637    749.25228    9.0825826    9.0825826    9.0825826    67.468686 
  389600     299.0541   -11418.417            0   -10527.885    3228.4463    748.74621    9.0805373    9.0805373    9.0805373    72.176035 
  389700    300.28365   -11434.327            0   -10540.133    10646.093    748.70339    9.0803642    9.0803642    9.0803642    59.100284 
  389800    324.49331   -11519.351            0   -10553.066    6076.3964     749.0908    9.0819301    9.0819301    9.0819301    72.560328 
  389900    293.20339   -11432.008            0   -10558.898   -4668.4683    749.86204    9.0850458    9.0850458    9.0850458     76.82272 
  390000    299.00819   -11457.981            0   -10567.586    -12121.76    750.66189    9.0882749    9.0882749    9.0882749    53.889654 
  390100    291.73775    -11440.17            0   -10571.425    357.52298    751.36654    9.0911178    9.0911178    9.0911178    80.737229 
  390200    303.15973   -11479.479            0   -10576.721   -10955.285    751.69567     9.092445     9.092445     9.092445    72.234458 
  390300    308.15227   -11498.901            0   -10581.276   -7520.0373     751.4898    9.0916149    9.0916149    9.0916149    65.659402 
  390400    296.23705   -11464.739            0   -10582.596   -2518.9411    750.91156    9.0892824    9.0892824    9.0892824    87.758117 
  390500    309.90056   -11508.447            0   -10585.616    599.82196    750.12492    9.0861074    9.0861074    9.0861074    47.800007 
  390600    304.29419     -11493.1            0   -10586.964    161.97913    749.22616    9.0824771    9.0824771    9.0824771    76.297796 
  390700    292.47652   -11457.371            0   -10586.426    3980.5302    748.47632    9.0794461    9.0794461    9.0794461    55.229098 
  390800    291.06351   -11453.154            0   -10586.416    14535.577     748.2415    9.0784965    9.0784965    9.0784965    65.007105 
  390900    299.21322   -11477.731            0   -10586.725     3536.102    748.55614    9.0797689    9.0797689    9.0797689    74.649081 
  391000    305.33508   -11496.321            0   -10587.086   -2750.6823    749.23193    9.0825004    9.0825004    9.0825004    65.122264 
  391100    294.23102   -11460.615            0   -10584.445   -5494.8862    749.96602    9.0854658    9.0854658    9.0854658    67.551394 
  391200    295.01062   -11461.462            0   -10582.971   -636.17021    750.65596     9.088251     9.088251     9.088251    58.952001 
  391300    306.62843   -11491.339            0   -10578.252    5139.6962    751.18454    9.0903837    9.0903837    9.0903837    79.828835 
  391400    303.54972   -11475.355            0   -10571.436   -2520.8197    751.43473    9.0913928    9.0913928    9.0913928    68.192332 
  391500     311.5814    -11490.22            0   -10562.384   -7859.4331    751.18407    9.0903818    9.0903818    9.0903818    50.685124 
  391600    295.52671   -11428.986            0   -10548.958    3912.1795    750.53314    9.0877553    9.0877553    9.0877553    80.084163 
  391700    302.33783   -11436.041            0    -10535.73    8697.2616    749.78551    9.0847367    9.0847367    9.0847367    58.132582 
  391800    305.39736   -11432.569            0   -10523.148    2195.8169    749.32202    9.0828644    9.0828644    9.0828644     80.34644 
  391900     300.8563   -11409.054            0   -10513.155    7014.1617    749.27623    9.0826794    9.0826794    9.0826794    78.170534 
  392000    308.54492   -11425.517            0   -10506.723     4040.451    749.86828    9.0850711    9.0850711    9.0850711    55.185287 
  392100    310.70625    -11428.68            0    -10503.45   -970.76919    750.94598    9.0894213    9.0894213    9.0894213    83.293337 
  392200    308.17658   -11418.822            0   -10501.125   -1527.7824    752.11729    9.0941446    9.0941446    9.0941446    72.740061 
  392300    308.69793   -11420.471            0   -10501.221   -16910.246    753.19098    9.0984701    9.0984701    9.0984701    65.794109 
  392400    315.53768    -11444.37            0   -10504.753   -19660.984    753.87377    9.1012186    9.1012186    9.1012186    71.545622 
  392500    301.26805   -11406.614            0   -10509.489   -10549.697    753.87609    9.1012279    9.1012279    9.1012279    57.853664 
  392600    307.78929    -11432.92            0   -10516.376    -2605.498    753.06084     9.097946     9.097946     9.097946    64.619819 
  392700    301.76394   -11422.662            0   -10524.061   -10685.699    751.76991    9.0927443    9.0927443    9.0927443    61.053877 
  392800     306.1055   -11444.983            0   -10533.453    784.74348      750.059    9.0858412    9.0858412    9.0858412    64.485458 
  392900    299.96027   -11436.995            0   -10543.764    4848.8038    748.39656    9.0791236    9.0791236    9.0791236    57.351416 
  393000    308.92343    -11474.26            0   -10554.339    13024.545    747.21608    9.0743474    9.0743474    9.0743474    53.239507 
  393100    293.05302   -11434.175            0   -10561.513    26462.992    746.79512     9.072643     9.072643     9.072643    75.984975 
  393200     299.4221   -11459.332            0   -10567.704    10299.083    747.45908     9.075331     9.075331     9.075331    64.958658 
  393300    297.35415   -11458.873            0   -10573.403   -18.575901    748.73227    9.0804809    9.0804809    9.0804809    74.908347 
  393400    285.79692   -11427.308            0   -10576.254   -4286.4833    750.41361    9.0872728    9.0872728    9.0872728    63.372534 
  393500    302.86638   -11480.272            0   -10578.388   -14139.184    752.02458     9.093771     9.093771     9.093771    55.101409 
  393600    291.79643   -11446.805            0   -10577.885   -11359.018    752.98777    9.0976517    9.0976517    9.0976517    81.842721 
  393700    293.83657   -11453.191            0   -10578.196     -17803.7    752.96147    9.0975458    9.0975458    9.0975458    59.185218 
  393800    299.90169   -11471.216            0    -10578.16    -17982.13    751.87999    9.0931881    9.0931881    9.0931881    64.303397 
  393900    302.21519   -11477.388            0   -10577.443   -8404.2782    749.95111    9.0854056    9.0854056    9.0854056    70.426609 
  394000    291.88278   -11443.836            0   -10574.659    10732.035    747.83809    9.0768647    9.0768647    9.0768647    58.261404 
  394100    301.96956   -11472.887            0   -10573.673    24381.666    746.30651    9.0706639    9.0706639    9.0706639     78.15771 
  394200    293.54641   -11445.497            0   -10571.366     16118.96    745.73495    9.0683478    9.0683478    9.0683478    47.863372 
  394300     306.0484   -11481.678            0   -10570.318    16520.472    746.27469     9.070535     9.070535     9.070535    65.305905 
  394400    299.14137   -11460.027            0   -10569.235    2340.9724    748.01112    9.0775647    9.0775647    9.0775647    71.187284 
  394500    298.72289   -11456.851            0   -10567.305    2746.2852    750.43034    9.0873404    9.0873404    9.0873404    62.023987 
  394600    288.65604   -11423.412            0   -10563.843   -1385.3816    752.78223    9.0968239    9.0968239    9.0968239    70.402327 
  394700     287.5106   -11417.635            0   -10561.478   -4615.8884    754.40256     9.103346     9.103346     9.103346     72.83395 
  394800     286.1309   -11411.096            0   -10559.047   -17539.664    754.93816    9.1054999    9.1054999    9.1054999    59.518585 
  394900    307.13941   -11470.903            0   -10556.295   -26082.266     754.2137    9.1025863    9.1025863    9.1025863    65.516871 
  395000    291.87566   -11418.263            0   -10549.107   -11649.022    752.14884    9.0942718    9.0942718    9.0942718    57.058464 
  395100    307.15933   -11457.582            0   -10542.914    7562.6435    749.42687    9.0832881    9.0832881    9.0832881    70.194349 
  395200      305.393   -11444.381            0   -10534.973    12249.974    746.98825    9.0734251    9.0734251    9.0734251    67.600155 
  395300    309.47998   -11448.446            0   -10526.867    18110.534     745.4849    9.0673341    9.0673341    9.0673341    58.488842 
  395400    305.87185    -11430.99            0   -10520.156    28928.715    745.40089    9.0669935    9.0669935    9.0669935    76.398767 
  395500     309.9555   -11437.516            0   -10514.522    10528.356    746.90883    9.0731035    9.0731035    9.0731035    59.344603 
  395600    308.35544   -11429.415            0   -10511.185    16236.462    749.70525    9.0844126    9.0844126    9.0844126    64.655739 
  395700      304.592   -11414.745            0   -10507.722   -8512.0788    753.11755    9.0981744    9.0981744    9.0981744    63.207608 
  395800    311.54483   -11434.603            0   -10506.875   -21900.635    756.07962    9.1100867    9.1100867    9.1100867    50.594879 
  395900    303.43525   -11409.977            0   -10506.399   -20527.082    757.73137    9.1167159    9.1167159    9.1167159    74.007384 
  396000    308.97626   -11429.048            0   -10508.969   -31628.053    757.78352    9.1169251    9.1169251    9.1169251    58.885105 
  396100    298.88246   -11403.334            0   -10513.313    -13765.03    756.04891    9.1099634    9.1099634    9.1099634    72.751439 
  396200    299.72088   -11414.225            0   -10521.707   -2659.5953    752.94789    9.0974911    9.0974911    9.0974911    63.146359 
  396300     302.9676   -11434.273            0   -10532.087   -1700.8022    749.32803    9.0828887    9.0828887    9.0828887    63.880088 
  396400     301.8958   -11443.277            0   -10544.283    21463.555    746.03785    9.0695753    9.0695753    9.0695753    75.277295 
  396500    299.69337   -11449.137            0   -10556.702    22788.955    744.05315    9.0615256    9.0615256    9.0615256    58.306085 
  396600    307.99485     -11487.3            0   -10570.144    32116.968    743.77403    9.0603923    9.0603923    9.0603923    73.057359 
  396700    297.88008   -11468.335            0   -10581.299    20236.377    745.29417    9.0665607    9.0665607    9.0665607    84.448249 
  396800    298.00611   -11477.772            0    -10590.36    3992.2867    748.05183    9.0777294    9.0777294    9.0777294    53.164824 
  396900     295.0138   -11472.612            0   -10594.111   -8645.6536     751.1595    9.0902827    9.0902827    9.0902827    66.078246 
  397000    286.29077   -11449.357            0   -10596.832   -17542.457    753.72687    9.1006274    9.1006274    9.1006274    44.684992 
Loop time of 1541.1 on 16 procs for 100000 steps with 1000 atoms

Performance: 5.606 ns/day, 4.281 hours/ns, 64.889 timesteps/s
94.6% CPU use with 16 MPI tasks x no OpenMP threads

MPI task timing breakdown:
Section |  min time  |  avg time  |  max time  |%varavg| %total
---------------------------------------------------------------
Pair    | 160.57     | 168.1      | 176.44     |  46.5 | 10.91
Neigh   | 59.152     | 62.174     | 67.318     |  32.1 |  4.03
Comm    | 32.888     | 46.343     | 56.861     | 122.9 |  3.01
Output  | 856.48     | 882.11     | 1261.7     | 330.0 | 57.24
Modify  | 2.0455     | 381.68     | 407.31     | 501.7 | 24.77
Other   |            | 0.6964     |            |       |  0.05

Nlocal:    62.5 ave 69 max 57 min
Histogram: 2 1 1 2 3 2 2 1 1 1
Nghost:    1908.75 ave 1930 max 1885 min
Histogram: 1 1 1 2 3 2 3 0 1 2
Neighs:    0 ave 0 max 0 min
Histogram: 16 0 0 0 0 0 0 0 0 0
FullNghs:  19510.5 ave 21522 max 17743 min
Histogram: 2 1 1 2 3 2 1 2 1 1

Total # of neighbors = 312168
Ave neighs/atom = 312.168
Neighbor list builds = 100000
Dangerous builds not checked
Total wall time: 1:41:13
