LAMMPS (16 Mar 2018)
Reading data file ...
  orthogonal box = (-4.72164 -4.72164 -4.72164) to (4.72164 4.72164 4.72164)
  2 by 2 by 4 MPI processor grid
  reading atoms ...
  1000 atoms
Reading potential file /home/fs01/ajm529/lammps-16Mar18/potentials/sw_potentials/AG/eps2.23.sw with DATE: 2008-01-29
Neighbor list info ...
  update every 1 steps, delay 0 steps, check no
  max neighbors/atom: 2000, page size: 100000
  master list distance cutoff = 3.836
  ghost atom cutoff = 3.836
  binsize = 1.918, bins = 5 5 5
  1 neighbor lists, perpetual/occasional/extra = 1 0 0
  (1) pair sw, perpetual
      attributes: full, newton on
      pair build: full/bin/atomonly
      stencil: full/bin/3d
      bin: standard
Setting up Verlet run ...
  Unit style    : real
  Current step  : 0
  Time step     : 1
Per MPI rank memory allocation (min/avg/max) = 3.518 | 3.519 | 3.52 Mbytes
Step Temp E_pair E_mol TotEng Press Volume Lx Ly Lz S/CPU 
       0          300   -10115.182            0   -9221.8337   -33466.824    842.11195    9.4432889    9.4432889    9.4432889            0 
     100    324.89065   -10193.529            0   -9226.0603   -31830.968     840.4182    9.4369535    9.4369535    9.4369535    70.499004 
     200    321.67331   -10195.708            0   -9237.8202   -34548.685     835.0558    9.4168395    9.4168395    9.4168395    62.195427 
     300    333.22098   -10249.393            0   -9257.1175   -28845.322     826.2283    9.3835396    9.3835396    9.3835396    48.973719 
     400    327.61864   -10256.419            0   -9280.8266   -26843.462    815.43968    9.3425181    9.3425181    9.3425181    75.975893 
     500    347.40398   -10337.552            0   -9303.0418   -7118.4245    804.49669    9.3005384    9.3005384    9.3005384    61.734811 
     600    333.96374   -10313.454            0   -9318.9672    12505.706    794.97959     9.263718     9.263718     9.263718    70.295169 
     700    327.42083   -10307.795            0   -9332.7922    24935.635    787.89797    9.2361291    9.2361291    9.2361291    57.868306 
     800    323.82091   -10311.419            0   -9347.1353    8446.8245    783.42793    9.2186293    9.2186293    9.2186293    63.712256 
     900    342.27343   -10386.481            0   -9367.2494    5247.6837    780.57619    9.2074302    9.2074302    9.2074302    62.881065 
    1000    340.85919    -10403.29            0   -9388.2693    20875.783    778.87411    9.2007329    9.2007329    9.2007329    82.803743 
Loop time of 15.5224 on 16 procs for 1000 steps with 1000 atoms

Performance: 5.566 ns/day, 4.312 hours/ns, 64.423 timesteps/s
94.6% CPU use with 16 MPI tasks x no OpenMP threads

MPI task timing breakdown:
Section |  min time  |  avg time  |  max time  |%varavg| %total
---------------------------------------------------------------
Pair    | 1.6067     | 1.6457     | 1.8046     |   3.6 | 10.60
Neigh   | 0.58475    | 0.60463    | 0.68453    |   3.1 |  3.90
Comm    | 0.3491     | 0.58752    | 0.64005    |   8.9 |  3.78
Output  | 8.5036     | 8.7665     | 12.656     |  33.9 | 56.48
Modify  | 0.020928   | 3.9112     | 4.1742     |  50.8 | 25.20
Other   |            | 0.006901   |            |       |  0.04

Nlocal:    62.5 ave 68 max 59 min
Histogram: 2 4 0 2 3 1 2 0 1 1
Nghost:    1861.81 ave 1878 max 1845 min
Histogram: 2 0 0 4 1 2 4 1 1 1
Neighs:    0 ave 0 max 0 min
Histogram: 16 0 0 0 0 0 0 0 0 0
FullNghs:  18944.8 ave 20782 max 17809 min
Histogram: 3 3 0 3 3 0 2 0 1 1

Total # of neighbors = 303116
Ave neighs/atom = 303.116
Neighbor list builds = 1000
Dangerous builds not checked
Setting up Verlet run ...
  Unit style    : real
  Current step  : 1000
  Time step     : 1
Per MPI rank memory allocation (min/avg/max) = 3.769 | 4.477 | 4.579 Mbytes
Step Temp E_pair E_mol TotEng Press Volume Lx Ly Lz S/CPU 
    1000    340.85919    -10403.29            0   -9388.2693    20875.783    778.87411    9.2007329    9.2007329    9.2007329            0 
    1100    326.86381   -10381.329            0   -9407.9841    13444.429    778.39498    9.1988459    9.1988459    9.1988459    60.095312 
    1200    321.17854   -10386.495            0   -9430.0797     15462.21    778.89164    9.2008019    9.2008019    9.2008019     71.77643 
    1300    319.69255   -10402.138            0   -9450.1478   -2243.5822    780.30268    9.2063546    9.2063546    9.2063546    57.747203 
    1400    322.25071   -10429.745            0    -9470.137    8390.4496     781.8863    9.2125785    9.2125785    9.2125785    81.810463 
    1500      318.192   -10436.429            0   -9488.9077    15273.169    783.91938    9.2205565    9.2205565    9.2205565    51.282597 
    1600    316.19936   -10447.988            0   -9506.4007   -6282.6901     786.5528    9.2308698    9.2308698    9.2308698    70.764187 
    1700    297.19937   -10406.819            0   -9521.8101    4434.1473    789.03145     9.240556     9.240556     9.240556    54.423469 
    1800    303.15813   -10440.357            0    -9537.604   -13409.394    791.39881    9.2497884    9.2497884    9.2497884    61.623465 
    1900    310.49599   -10475.374            0   -9550.7704   -12106.276    792.91008    9.2556725    9.2556725    9.2556725    51.173927 
    2000    311.48114    -10491.73            0   -9564.1919     -15477.2    793.32691    9.2572941    9.2572941    9.2572941    73.623953 
Loop time of 16.147 on 16 procs for 1000 steps with 1000 atoms

Performance: 5.351 ns/day, 4.485 hours/ns, 61.931 timesteps/s
94.6% CPU use with 16 MPI tasks x no OpenMP threads

MPI task timing breakdown:
Section |  min time  |  avg time  |  max time  |%varavg| %total
---------------------------------------------------------------
Pair    | 1.6538     | 1.7378     | 1.8784     |   4.0 | 10.76
Neigh   | 0.59299    | 0.61076    | 0.6598     |   2.1 |  3.78
Comm    | 0.38431    | 0.57359    | 0.67463    |   8.6 |  3.55
Output  | 8.7828     | 9.0622     | 13.196     |  35.5 | 56.12
Modify  | 0.020903   | 4.1557     | 4.4353     |  52.4 | 25.74
Other   |            | 0.006959   |            |       |  0.04

Nlocal:    62.5 ave 69 max 58 min
Histogram: 4 1 2 2 2 0 1 2 0 2
Nghost:    1848.81 ave 1873 max 1833 min
Histogram: 3 1 3 0 3 2 1 2 0 1
Neighs:    0 ave 0 max 0 min
Histogram: 16 0 0 0 0 0 0 0 0 0
FullNghs:  18594.6 ave 20597 max 17020 min
Histogram: 2 1 3 1 3 1 1 2 1 1

Total # of neighbors = 297514
Ave neighs/atom = 297.514
Neighbor list builds = 1000
Dangerous builds not checked
Setting up Verlet run ...
  Unit style    : real
  Current step  : 2000
  Time step     : 1
Per MPI rank memory allocation (min/avg/max) = 4.577 | 4.578 | 4.579 Mbytes
Step Temp E_pair E_mol TotEng Press Volume Lx Ly Lz S/CPU 
    2000    311.48114    -10491.73            0   -9564.1919     -15477.2    793.32691    9.2572941    9.2572941    9.2572941            0 
    2100    297.59502   -10461.837            0   -9575.6494   -14696.748    792.84327    9.2554125    9.2554125    9.2554125     62.13076 
    2200    312.67061   -10518.614            0   -9587.5342   -1026.2011    791.87619    9.2516479    9.2516479    9.2516479     70.37969 
    2300    308.33858   -10515.084            0   -9596.9039   -17326.209    790.78517     9.247397     9.247397     9.247397    61.046157 
    2400    296.78885   -10489.031            0   -9605.2445    4565.4725    789.04221     9.240598     9.240598     9.240598    52.821141 
    2500     303.0482   -10515.945            0   -9613.5196   -139.56725    787.38741    9.2341336    9.2341336    9.2341336    56.463431 
    2600    311.64543   -10549.787            0   -9621.7605   -1540.3483    785.88566    9.2282593    9.2282593    9.2282593    45.030678 
    2700    283.64048   -10473.264            0   -9628.6307    16571.801    784.38438    9.2223793    9.2223793    9.2223793    57.031975 
    2800    289.57563   -10497.439            0   -9635.1319    12255.194    783.19729    9.2177245    9.2177245    9.2177245    45.629567 
    2900    288.53645   -10499.928            0   -9640.7153    8242.6048    782.24328    9.2139803    9.2139803    9.2139803    46.859422 
    3000    295.40708   -10522.874            0   -9643.2026    12609.923    781.52105    9.2111438    9.2111438    9.2111438    44.567718 
Loop time of 18.8762 on 16 procs for 1000 steps with 1000 atoms

Performance: 4.577 ns/day, 5.243 hours/ns, 52.977 timesteps/s
94.6% CPU use with 16 MPI tasks x no OpenMP threads

MPI task timing breakdown:
Section |  min time  |  avg time  |  max time  |%varavg| %total
---------------------------------------------------------------
Pair    | 1.6407     | 1.7508     | 2.0948     |   9.6 |  9.28
Neigh   | 0.59161    | 0.61913    | 0.73009    |   4.6 |  3.28
Comm    | 0.33944    | 0.79445    | 0.91909    |  18.0 |  4.21
Output  | 10.25      | 10.593     | 15.682     |  40.4 | 56.12
Modify  | 0.022133   | 5.1121     | 5.4554     |  58.1 | 27.08
Other   |            | 0.006984   |            |       |  0.04

Nlocal:    62.5 ave 67 max 59 min
Histogram: 2 2 1 3 0 1 5 1 0 1
Nghost:    1855.81 ave 1878 max 1844 min
Histogram: 1 3 4 3 1 3 0 0 0 1
Neighs:    0 ave 0 max 0 min
Histogram: 16 0 0 0 0 0 0 0 0 0
FullNghs:  18900 ave 20315 max 17740 min
Histogram: 2 2 0 3 2 2 2 2 0 1

Total # of neighbors = 302400
Ave neighs/atom = 302.4
Neighbor list builds = 1000
Dangerous builds not checked
Setting up Verlet run ...
  Unit style    : real
  Current step  : 3000
  Time step     : 1
Per MPI rank memory allocation (min/avg/max) = 4.577 | 4.578 | 4.579 Mbytes
Step Temp E_pair E_mol TotEng Press Volume Lx Ly Lz S/CPU 
    3000    295.40708   -10522.874            0   -9643.2026    12609.923    781.52105    9.2111438    9.2111438    9.2111438            0 
    3100    295.24946   -10524.387            0   -9645.1846    1551.9043    781.51176    9.2111073    9.2111073    9.2111073    74.549403 
    3200    291.65342    -10513.91            0   -9645.4161    2383.4577    782.01677    9.2130909    9.2130909    9.2130909    54.078242 
    3300    289.91827   -10506.247            0   -9642.9198    12618.061    782.44834    9.2147854    9.2147854    9.2147854    77.601443 
    3400    289.96703   -10501.484            0   -9638.0112   -2841.8076    783.12607    9.2174451    9.2174451    9.2174451    52.453829 
    3500     296.8436   -10516.209            0    -9632.259   -8626.5393    783.85939    9.2203213    9.2203213    9.2203213     75.80532 
    3600    297.33867   -10510.224            0   -9624.8006   -14050.751    784.31297    9.2220994    9.2220994    9.2220994    56.243725 
    3700    301.53953   -10511.958            0   -9614.0248   -5854.6832    784.58765    9.2231759    9.2231759    9.2231759    80.603721 
    3800    294.65031   -10481.601            0   -9604.1825   -9001.6855    784.83957    9.2241629    9.2241629    9.2241629     55.63572 
    3900    299.98162   -10487.918            0   -9594.6237    7394.7465    785.10451    9.2252007    9.2252007    9.2252007    62.547838 
    4000    307.95457   -10501.785            0   -9584.7487    14663.679    785.50302    9.2267613    9.2267613    9.2267613    66.006969 
Loop time of 15.6346 on 16 procs for 1000 steps with 1000 atoms

Performance: 5.526 ns/day, 4.343 hours/ns, 63.961 timesteps/s
94.6% CPU use with 16 MPI tasks x no OpenMP threads

MPI task timing breakdown:
Section |  min time  |  avg time  |  max time  |%varavg| %total
---------------------------------------------------------------
Pair    | 1.6359     | 1.7367     | 1.8719     |   4.9 | 11.11
Neigh   | 0.58691    | 0.61072    | 0.66433    |   2.3 |  3.91
Comm    | 0.3612     | 0.54973    | 0.65686    |  10.6 |  3.52
Output  | 8.383      | 8.6567     | 12.709     |  35.6 | 55.37
Modify  | 0.020538   | 4.0738     | 4.3477     |  51.9 | 26.06
Other   |            | 0.006975   |            |       |  0.04

Nlocal:    62.5 ave 68 max 51 min
Histogram: 1 0 0 1 0 3 2 4 3 2
Nghost:    1855.75 ave 1871 max 1837 min
Histogram: 1 1 1 1 3 2 1 3 2 1
Neighs:    0 ave 0 max 0 min
Histogram: 16 0 0 0 0 0 0 0 0 0
FullNghs:  18828.5 ave 20472 max 15303 min
Histogram: 1 0 0 1 0 1 4 5 2 2

Total # of neighbors = 301256
Ave neighs/atom = 301.256
Neighbor list builds = 1000
Dangerous builds not checked
Setting up Verlet run ...
  Unit style    : real
  Current step  : 4000
  Time step     : 1
Per MPI rank memory allocation (min/avg/max) = 4.577 | 4.578 | 4.579 Mbytes
Step Temp E_pair E_mol TotEng Press Volume Lx Ly Lz S/CPU 
    4000    307.95457   -10501.785            0   -9584.7487    14663.679    785.50302    9.2267613    9.2267613    9.2267613            0 
    4100     303.8735   -10480.548            0   -9575.6646    9188.7617    786.34786    9.2300681    9.2300681    9.2300681    58.540556 
    4200      302.693   -10468.684            0   -9567.3154    9084.1028     787.4361     9.234324     9.234324     9.234324    75.071313 
    4300    295.45256    -10438.84            0   -9559.0331     -4569.91     788.5478    9.2386676    9.2386676    9.2386676    58.255399 
    4400    306.87488   -10464.922            0   -9551.1013    5831.4579    789.48793    9.2423377    9.2423377    9.2423377    64.941152 
    4500     295.5755   -10423.386            0   -9543.2129   -4208.1798    790.26203    9.2453574    9.2453574    9.2453574    53.868033 
    4600     303.6119   -10441.004            0   -9536.8997    -12546.79    790.54478    9.2464599    9.2464599    9.2464599    71.685646 
    4700    298.95361   -10422.773            0   -9532.5399    -6028.926    790.08225    9.2446563    9.2446563    9.2446563    53.877305 
    4800    298.00989   -10416.606            0   -9529.1838   -14835.816    788.93617    9.2401841    9.2401841    9.2401841    67.284511 
    4900    298.32902   -10415.857            0   -9527.4839    1375.4888    787.19395    9.2333773    9.2333773    9.2333773    58.720892 
    5000    304.82787   -10433.778            0   -9526.0522    9128.5877      785.281     9.225892     9.225892     9.225892    66.593898 
Loop time of 16.095 on 16 procs for 1000 steps with 1000 atoms

Performance: 5.368 ns/day, 4.471 hours/ns, 62.131 timesteps/s
94.6% CPU use with 16 MPI tasks x no OpenMP threads

MPI task timing breakdown:
Section |  min time  |  avg time  |  max time  |%varavg| %total
---------------------------------------------------------------
Pair    | 1.6383     | 1.7204     | 1.8603     |   4.0 | 10.69
Neigh   | 0.58826    | 0.61055    | 0.67988    |   2.7 |  3.79
Comm    | 0.37664    | 0.58532    | 0.68964    |   9.1 |  3.64
Output  | 9.1213     | 9.3765     | 13.15      |  31.8 | 58.26
Modify  | 0.020819   | 3.7953     | 4.0508     |  50.0 | 23.58
Other   |            | 0.006939   |            |       |  0.04

Nlocal:    62.5 ave 72 max 54 min
Histogram: 1 2 2 2 1 2 1 4 0 1
Nghost:    1852.31 ave 1864 max 1838 min
Histogram: 2 1 0 3 0 4 0 2 2 2
Neighs:    0 ave 0 max 0 min
Histogram: 16 0 0 0 0 0 0 0 0 0
FullNghs:  18792.8 ave 21718 max 16188 min
Histogram: 1 2 2 2 1 2 3 2 0 1

Total # of neighbors = 300684
Ave neighs/atom = 300.684
Neighbor list builds = 1000
Dangerous builds not checked
Setting up Verlet run ...
  Unit style    : real
  Current step  : 5000
  Time step     : 1
Per MPI rank memory allocation (min/avg/max) = 4.577 | 4.578 | 4.579 Mbytes
Step Temp E_pair E_mol TotEng Press Volume Lx Ly Lz S/CPU 
    5000    304.82787   -10433.778            0   -9526.0522    9128.5877      785.281     9.225892     9.225892     9.225892            0 
    5100    305.95792   -10437.012            0   -9525.9217    1228.6549    783.74928    9.2198896    9.2198896    9.2198896    52.548935 
    5200     305.5962   -10435.805            0   -9525.7922    4943.7362    782.12166    9.2135028    9.2135028    9.2135028    68.543828 
    5300    297.03126   -10411.408            0   -9526.9001    15545.388    780.83292    9.2084395    9.2084395    9.2084395    54.913188 
    5400    310.64794    -10456.49            0   -9531.4339    12290.398    780.38355    9.2066727    9.2066727    9.2066727    57.484311 
    5500    313.44814   -10472.618            0   -9539.2233   -2746.6496     780.4695    9.2070106    9.2070106    9.2070106    49.736138 
    5600    295.30192   -10428.438            0   -9549.0795    10148.386    781.12189    9.2095753    9.2095753    9.2095753    73.139154 
    5700    310.60918   -10489.784            0   -9564.8428   -8466.6197    782.23752    9.2139577    9.2139577    9.2139577    63.223072 
    5800    307.64138    -10498.25            0   -9582.1467   -1903.6652    783.07994    9.2172641    9.2172641    9.2172641     68.49045 
    5900    291.04232   -10462.984            0   -9596.3098   -1362.8343    783.77582    9.2199936    9.2199936    9.2199936    53.228379 
    6000    294.99014   -10486.046            0   -9607.6153    3156.2219    784.25363    9.2218668    9.2218668    9.2218668     50.47136 
Loop time of 17.2023 on 16 procs for 1000 steps with 1000 atoms

Performance: 5.023 ns/day, 4.778 hours/ns, 58.132 timesteps/s
94.6% CPU use with 16 MPI tasks x no OpenMP threads

MPI task timing breakdown:
Section |  min time  |  avg time  |  max time  |%varavg| %total
---------------------------------------------------------------
Pair    | 1.6616     | 1.7483     | 1.9411     |   5.0 | 10.16
Neigh   | 0.5865     | 0.6116     | 0.68222    |   2.9 |  3.56
Comm    | 0.32948    | 0.59237    | 0.70403    |  11.2 |  3.44
Output  | 9.8882     | 10.162     | 14.221     |  32.9 | 59.08
Modify  | 0.020663   | 4.0806     | 4.3552     |  51.9 | 23.72
Other   |            | 0.006952   |            |       |  0.04

Nlocal:    62.5 ave 67 max 58 min
Histogram: 1 1 1 2 2 4 3 0 1 1
Nghost:    1848.94 ave 1864 max 1835 min
Histogram: 2 0 3 2 1 2 3 1 1 1
Neighs:    0 ave 0 max 0 min
Histogram: 16 0 0 0 0 0 0 0 0 0
FullNghs:  18827.1 ave 20364 max 17295 min
Histogram: 1 2 0 2 3 3 2 1 1 1

Total # of neighbors = 301234
Ave neighs/atom = 301.234
Neighbor list builds = 1000
Dangerous builds not checked
Setting up Verlet run ...
  Unit style    : real
  Current step  : 6000
  Time step     : 1
Per MPI rank memory allocation (min/avg/max) = 4.577 | 4.578 | 4.579 Mbytes
Step Temp E_pair E_mol TotEng Press Volume Lx Ly Lz S/CPU 
    6000    294.99014   -10486.046            0   -9607.6153    3156.2219    784.25363    9.2218668    9.2218668    9.2218668            0 
    6100     295.2284   -10492.847            0   -9613.7068    -8141.095    784.25556    9.2218744    9.2218744    9.2218744    69.833426 
    6200    300.72545   -10513.476            0   -9617.9671    65.861986    783.95512    9.2206966    9.2206966    9.2206966    55.237419 
    6300    285.71732    -10470.67            0   -9619.8527    4343.8058     783.3475    9.2183138    9.2183138    9.2183138    64.965622 
    6400    300.56736   -10516.979            0   -9621.9404   -8486.4846    782.98802    9.2169035    9.2169035    9.2169035    60.244246 
    6500    302.73059   -10522.322            0   -9620.8424   -10788.962    782.68338     9.215708     9.215708     9.215708    59.203494 
    6600    287.21978   -10474.257            0   -9618.9651    6555.7225    782.32336    9.2142947    9.2142947    9.2142947    52.594596 
    6700    301.09878   -10513.876            0   -9617.2552   -2718.0066    782.19636    9.2137961    9.2137961    9.2137961    72.888334 
    6800    303.51196   -10519.131            0    -9615.324    2348.9028    781.89524    9.2126136    9.2126136    9.2126136    58.628185 
    6900    298.07103   -10500.252            0   -9612.6476    9733.1476    781.82771    9.2123484    9.2123484    9.2123484    63.766711 
    7000    302.88115   -10511.542            0   -9609.6137   -1476.8535    782.47981    9.2149089    9.2149089    9.2149089    58.016562 
Loop time of 16.4015 on 16 procs for 1000 steps with 1000 atoms

Performance: 5.268 ns/day, 4.556 hours/ns, 60.970 timesteps/s
94.6% CPU use with 16 MPI tasks x no OpenMP threads

MPI task timing breakdown:
Section |  min time  |  avg time  |  max time  |%varavg| %total
---------------------------------------------------------------
Pair    | 1.6592     | 1.7431     | 1.961      |   5.2 | 10.63
Neigh   | 0.59169    | 0.61283    | 0.7013     |   3.5 |  3.74
Comm    | 0.3076     | 0.61348    | 0.71654    |  11.9 |  3.74
Output  | 9.0337     | 9.3103     | 13.403     |  34.6 | 56.77
Modify  | 0.020998   | 4.1148     | 4.3916     |  52.1 | 25.09
Other   |            | 0.006943   |            |       |  0.04

Nlocal:    62.5 ave 67 max 59 min
Histogram: 2 0 2 5 0 3 2 0 1 1
Nghost:    1866.81 ave 1883 max 1841 min
Histogram: 1 0 3 3 0 1 0 0 3 5
Neighs:    0 ave 0 max 0 min
Histogram: 16 0 0 0 0 0 0 0 0 0
FullNghs:  18871.4 ave 20301 max 17761 min
Histogram: 2 0 4 1 3 3 1 0 1 1

Total # of neighbors = 301942
Ave neighs/atom = 301.942
Neighbor list builds = 1000
Dangerous builds not checked
Setting up Verlet run ...
  Unit style    : real
  Current step  : 7000
  Time step     : 1
Per MPI rank memory allocation (min/avg/max) = 4.577 | 4.578 | 4.579 Mbytes
Step Temp E_pair E_mol TotEng Press Volume Lx Ly Lz S/CPU 
    7000    302.88115   -10511.542            0   -9609.6137   -1476.8535    782.47981    9.2149089    9.2149089    9.2149089            0 
    7100    309.10985   -10528.629            0   -9608.1524   -2840.3387     783.1875    9.2176861    9.2176861    9.2176861    73.686303 
    7200    300.70567   -10500.471            0    -9605.021   -16324.095    783.43164    9.2186438    9.2186438    9.2186438    45.860356 
    7300    304.92883   -10510.151            0    -9602.125    3852.3466    782.83902    9.2163188    9.2163188    9.2163188    69.613545 
    7400    285.47946   -10447.895            0    -9597.786    5986.4176    781.93428    9.2127669    9.2127669    9.2127669    43.501537 
    7500    297.03816   -10477.338            0   -9592.8089   -1536.1234    781.01016    9.2091362    9.2091362    9.2091362     53.73503 
    7600    296.25378   -10469.063            0   -9586.8701   -4870.8186     780.0496    9.2053592    9.2053592    9.2053592     69.69923 
    7700    307.20534    -10495.46            0   -9580.6552    648.72543    779.02574    9.2013299    9.2013299    9.2013299    51.450121 
    7800    300.73661   -10469.045            0    -9573.503    6174.8674    778.09544    9.1976658    9.1976658    9.1976658    55.661694 
    7900    309.58825   -10486.838            0   -9564.9375    22425.026    777.70236    9.1961167    9.1961167    9.1961167    64.824913 
    8000    303.20756   -10457.493            0   -9554.5931    10867.335    778.54845    9.1994504    9.1994504    9.1994504    70.946464 
Loop time of 17.261 on 16 procs for 1000 steps with 1000 atoms

Performance: 5.006 ns/day, 4.795 hours/ns, 57.934 timesteps/s
94.5% CPU use with 16 MPI tasks x no OpenMP threads

MPI task timing breakdown:
Section |  min time  |  avg time  |  max time  |%varavg| %total
---------------------------------------------------------------
Pair    | 1.6998     | 1.7509     | 1.8618     |   2.9 | 10.14
Neigh   | 0.59385    | 0.6119     | 0.66525    |   2.1 |  3.55
Comm    | 0.36445    | 0.52837    | 0.59295    |   7.1 |  3.06
Output  | 10.112     | 10.379     | 14.341     |  31.8 | 60.13
Modify  | 0.02069    | 3.9837     | 4.2514     |  51.3 | 23.08
Other   |            | 0.006992   |            |       |  0.04

Nlocal:    62.5 ave 68 max 59 min
Histogram: 3 4 1 0 2 1 1 2 1 1
Nghost:    1876.44 ave 1896 max 1855 min
Histogram: 1 2 1 2 1 3 2 0 1 3
Neighs:    0 ave 0 max 0 min
Histogram: 16 0 0 0 0 0 0 0 0 0
FullNghs:  18965.6 ave 20718 max 17723 min
Histogram: 4 2 1 1 2 0 2 2 1 1

Total # of neighbors = 303450
Ave neighs/atom = 303.45
Neighbor list builds = 1000
Dangerous builds not checked
Setting up Verlet run ...
  Unit style    : real
  Current step  : 8000
  Time step     : 1
Per MPI rank memory allocation (min/avg/max) = 4.577 | 4.578 | 4.579 Mbytes
Step Temp E_pair E_mol TotEng Press Volume Lx Ly Lz S/CPU 
    8000    303.20756   -10457.493            0   -9554.5931    10867.335    778.54845    9.1994504    9.1994504    9.1994504            0 
    8100    307.64183   -10461.338            0    -9545.233    -1326.514    780.46201    9.2069812    9.2069812    9.2069812    50.263976 
    8200    298.58853   -10424.678            0   -9535.5324   -3776.8867    782.55612    9.2152085    9.2152085    9.2152085    66.588452 
    8300    300.49685   -10422.436            0    -9527.608   -16752.496    784.25375    9.2218673    9.2218673    9.2218673    66.574566 
    8400    309.98291   -10445.319            0   -9522.2428    5631.2874    785.42524    9.2264568    9.2264568    9.2264568    57.876276 
    8500    303.18116   -10419.741            0   -9516.9193    541.04315    786.89529    9.2322095    9.2322095    9.2322095     60.63641 
    8600    316.35505   -10456.432            0   -9514.3809   -2910.3178    788.71212    9.2393093    9.2393093    9.2393093    59.673257 
    8700    306.15807   -10425.606            0   -9513.9193   -10670.285    790.29746    9.2454956    9.2454956    9.2454956    67.716735 
    8800    304.00953   -10419.371            0   -9514.0826   -3694.2579    791.69635    9.2509475    9.2509475    9.2509475    64.278861 
    8900    301.34626    -10415.24            0   -9517.8823   -11206.739    792.88108    9.2555597    9.2555597    9.2555597    66.308529 
    9000    307.41514    -10439.49            0   -9524.0601   -6812.8824    793.54599    9.2581462    9.2581462    9.2581462    51.508221 
Loop time of 16.5282 on 16 procs for 1000 steps with 1000 atoms

Performance: 5.227 ns/day, 4.591 hours/ns, 60.503 timesteps/s
94.6% CPU use with 16 MPI tasks x no OpenMP threads

MPI task timing breakdown:
Section |  min time  |  avg time  |  max time  |%varavg| %total
---------------------------------------------------------------
Pair    | 1.6429     | 1.7293     | 1.9408     |   4.9 | 10.46
Neigh   | 0.58806    | 0.61192    | 0.69936    |   3.2 |  3.70
Comm    | 0.30327    | 0.60177    | 0.7109     |  11.0 |  3.64
Output  | 8.9831     | 9.2726     | 13.556     |  36.3 | 56.10
Modify  | 0.021104   | 4.3056     | 4.5953     |  53.3 | 26.05
Other   |            | 0.006975   |            |       |  0.04

Nlocal:    62.5 ave 67 max 58 min
Histogram: 1 0 0 4 4 3 2 0 1 1
Nghost:    1843.94 ave 1857 max 1836 min
Histogram: 4 2 1 1 3 1 2 1 0 1
Neighs:    0 ave 0 max 0 min
Histogram: 16 0 0 0 0 0 0 0 0 0
FullNghs:  18604.8 ave 20027 max 17389 min
Histogram: 1 0 4 0 4 4 1 0 1 1

Total # of neighbors = 297676
Ave neighs/atom = 297.676
Neighbor list builds = 1000
Dangerous builds not checked
Setting up Verlet run ...
  Unit style    : real
  Current step  : 9000
  Time step     : 1
Per MPI rank memory allocation (min/avg/max) = 4.577 | 4.578 | 4.579 Mbytes
Step Temp E_pair E_mol TotEng Press Volume Lx Ly Lz S/CPU 
    9000    307.41514    -10439.49            0   -9524.0601   -6812.8824    793.54599    9.2581462    9.2581462    9.2581462            0 
    9100    307.12962   -10449.216            0   -9534.6361   -14964.407    793.51857    9.2580395    9.2580395    9.2580395    76.346282 
    9200    298.52209    -10437.79            0   -9548.8421    5042.6792    792.43297    9.2538157    9.2538157    9.2538157    52.337481 
    9300    294.50374   -10442.099            0   -9565.1169    2309.9271    790.88474    9.2477852    9.2477852    9.2477852    71.171866 
    9400    304.66061   -10489.603            0   -9582.3761   -3869.4629    789.05943    9.2406652    9.2406652    9.2406652    58.869457 
    9500    297.48853   -10480.984            0   -9595.1136    12269.764    787.05227    9.2328233    9.2328233    9.2328233     70.83613 
    9600    293.97547   -10477.932            0   -9602.5236    13415.501    785.29271    9.2259378    9.2259378    9.2259378    53.125315 
    9700    294.81862   -10485.569            0   -9607.6496   -9197.1278    784.05171    9.2210753    9.2210753    9.2210753    81.940088 
    9800    291.69329   -10478.451            0   -9609.8378    11500.283    782.99946    9.2169484    9.2169484    9.2169484    50.526001 
    9900    282.58004   -10452.534            0   -9611.0584    22161.208    782.46814    9.2148631    9.2148631    9.2148631    80.245023 
   10000    293.15356   -10484.788            0   -9611.8272    10312.881    782.80757    9.2161953    9.2161953    9.2161953    52.494654 
Loop time of 15.969 on 16 procs for 1000 steps with 1000 atoms

Performance: 5.410 ns/day, 4.436 hours/ns, 62.621 timesteps/s
94.6% CPU use with 16 MPI tasks x no OpenMP threads

MPI task timing breakdown:
Section |  min time  |  avg time  |  max time  |%varavg| %total
---------------------------------------------------------------
Pair    | 1.65       | 1.716      | 1.7927     |   3.1 | 10.75
Neigh   | 0.59356    | 0.60892    | 0.65136    |   1.8 |  3.81
Comm    | 0.39493    | 0.50839    | 0.59055    |   6.9 |  3.18
Output  | 9.008      | 9.2673     | 13.108     |  32.6 | 58.03
Modify  | 0.020464   | 3.8615     | 4.1211     |  50.5 | 24.18
Other   |            | 0.006899   |            |       |  0.04

Nlocal:    62.5 ave 68 max 59 min
Histogram: 1 1 5 3 2 1 1 0 1 1
Nghost:    1860.19 ave 1874 max 1843 min
Histogram: 1 1 2 1 1 2 4 0 1 3
Neighs:    0 ave 0 max 0 min
Histogram: 16 0 0 0 0 0 0 0 0 0
FullNghs:  18853.5 ave 20465 max 17610 min
Histogram: 1 0 5 2 3 1 1 1 1 1

Total # of neighbors = 301656
Ave neighs/atom = 301.656
Neighbor list builds = 1000
Dangerous builds not checked
Setting up Verlet run ...
  Unit style    : real
  Current step  : 10000
  Time step     : 1
Per MPI rank memory allocation (min/avg/max) = 4.577 | 4.578 | 4.579 Mbytes
Step Temp E_pair E_mol TotEng Press Volume Lx Ly Lz S/CPU 
   10000    293.15356   -10484.788            0   -9611.8272    10312.881    782.80757    9.2161953    9.2161953    9.2161953            0 
   10100     297.7874   -10497.389            0   -9610.6291   -1523.7796    783.80735    9.2201173    9.2201173    9.2201173     77.65779 
   10200    309.37771   -10530.448            0   -9609.1742    4556.9766    784.95982     9.224634     9.224634     9.224634    46.714982 
   10300    295.53599   -10486.114            0   -9606.0586   -6612.9808    786.44742    9.2304576    9.2304576    9.2304576    75.149173 
   10400    300.62339   -10497.434            0   -9602.2292    4280.1807    787.66166    9.2352056    9.2352056    9.2352056    63.867908 
   10500    293.52171   -10472.071            0   -9598.0136    752.47125    789.17269    9.2411074    9.2411074    9.2411074    80.379518 
   10600     287.5982   -10449.592            0    -9593.174    -1512.264    790.53764    9.2464321    9.2464321    9.2464321     58.32974 
   10700    294.75219   -10466.073            0   -9588.3509   -8712.6362    791.50032    9.2501839    9.2501839    9.2501839     73.70333 
   10800    298.73378   -10471.418            0   -9581.8397   -6152.4771    792.06989    9.2524022    9.2524022    9.2524022    62.435135 
   10900    305.44556   -10485.215            0   -9575.6502   -11594.595    792.15798    9.2527452    9.2527452    9.2527452     63.49136 
   11000    297.26195   -10452.573            0   -9567.3775   -317.02248     791.7485    9.2511506    9.2511506    9.2511506    61.699127 
Loop time of 15.4375 on 16 procs for 1000 steps with 1000 atoms

Performance: 5.597 ns/day, 4.288 hours/ns, 64.777 timesteps/s
94.6% CPU use with 16 MPI tasks x no OpenMP threads

MPI task timing breakdown:
Section |  min time  |  avg time  |  max time  |%varavg| %total
---------------------------------------------------------------
Pair    | 1.6541     | 1.7104     | 1.7824     |   2.8 | 11.08
Neigh   | 0.59316    | 0.61006    | 0.66038    |   2.0 |  3.95
Comm    | 0.43062    | 0.52332    | 0.59641    |   6.4 |  3.39
Output  | 8.2227     | 8.4975     | 12.565     |  36.0 | 55.04
Modify  | 0.020806   | 4.0892     | 4.3643     |  51.9 | 26.49
Other   |            | 0.006927   |            |       |  0.04

Nlocal:    62.5 ave 69 max 55 min
Histogram: 1 2 3 0 0 4 1 0 1 4
Nghost:    1842.12 ave 1865 max 1829 min
Histogram: 4 2 1 2 1 2 3 0 0 1
Neighs:    0 ave 0 max 0 min
Histogram: 16 0 0 0 0 0 0 0 0 0
FullNghs:  18644.4 ave 20674 max 16225 min
Histogram: 1 2 2 1 1 2 2 0 2 3

Total # of neighbors = 298310
Ave neighs/atom = 298.31
Neighbor list builds = 1000
Dangerous builds not checked
Setting up Verlet run ...
  Unit style    : real
  Current step  : 11000
  Time step     : 1
Per MPI rank memory allocation (min/avg/max) = 4.577 | 4.578 | 4.579 Mbytes
Step Temp E_pair E_mol TotEng Press Volume Lx Ly Lz S/CPU 
   11000    297.26195   -10452.573            0   -9567.3775   -317.02248     791.7485    9.2511506    9.2511506    9.2511506            0 
   11100    297.96706   -10444.804            0   -9557.5088    -18396.18    791.07055    9.2485093    9.2485093    9.2485093     77.98889 
   11200     308.9709   -10467.026            0    -9546.963    -3848.414    790.03534    9.2444733    9.2444733    9.2444733    55.296841 
   11300    306.03611   -10448.461            0   -9537.1382     -8248.05    788.78078    9.2395774    9.2395774    9.2395774    81.599951 
   11400     300.5857   -10424.654            0   -9529.5607    11016.857    786.83475    9.2319727    9.2319727    9.2319727     62.83277 
   11500    303.05902   -10427.177            0   -9524.7189    3881.3299    784.48333     9.222767     9.222767     9.222767    68.920771 
   11600    302.82727   -10422.888            0   -9521.1203    20936.748    781.92534    9.2127318    9.2127318    9.2127318    58.253071 
   11700    304.69724   -10425.588            0   -9518.2517    5056.6765    779.89513    9.2047515    9.2047515    9.2047515    55.116041 
   11800    315.50495   -10459.437            0   -9519.9173     21369.24    778.17935    9.1979964    9.1979964    9.1979964    80.696133 
   11900    306.70629   -10437.166            0   -9523.8474    16481.368     777.3372    9.1946771    9.1946771    9.1946771    57.774383 
   12000    300.86594   -10432.275            0   -9536.3481    15755.079    777.49745    9.1953089    9.1953089    9.1953089    76.701007 
Loop time of 15.1635 on 16 procs for 1000 steps with 1000 atoms

Performance: 5.698 ns/day, 4.212 hours/ns, 65.948 timesteps/s
94.7% CPU use with 16 MPI tasks x no OpenMP threads

MPI task timing breakdown:
Section |  min time  |  avg time  |  max time  |%varavg| %total
---------------------------------------------------------------
Pair    | 1.6672     | 1.7358     | 1.8454     |   3.5 | 11.45
Neigh   | 0.58875    | 0.61111    | 0.66733    |   2.5 |  4.03
Comm    | 0.38309    | 0.54869    | 0.63972    |   8.4 |  3.62
Output  | 8.2149     | 8.4699     | 12.24      |  33.4 | 55.86
Modify  | 0.020558   | 3.791      | 4.0462     |  50.0 | 25.00
Other   |            | 0.006966   |            |       |  0.05

Nlocal:    62.5 ave 69 max 56 min
Histogram: 3 0 0 3 2 2 3 0 0 3
Nghost:    1860.88 ave 1875 max 1845 min
Histogram: 1 1 2 2 1 1 2 2 2 2
Neighs:    0 ave 0 max 0 min
Histogram: 16 0 0 0 0 0 0 0 0 0
FullNghs:  18979.9 ave 21037 max 16995 min
Histogram: 2 1 2 1 2 2 3 0 1 2

Total # of neighbors = 303678
Ave neighs/atom = 303.678
Neighbor list builds = 1000
Dangerous builds not checked
Setting up Verlet run ...
  Unit style    : real
  Current step  : 12000
  Time step     : 1
Per MPI rank memory allocation (min/avg/max) = 4.577 | 4.578 | 4.579 Mbytes
Step Temp E_pair E_mol TotEng Press Volume Lx Ly Lz S/CPU 
   12000    300.86594   -10432.275            0   -9536.3481    15755.079    777.49745    9.1953089    9.1953089    9.1953089            0 
   12100    300.06406   -10449.505            0    -9555.966    17780.248    778.80801    9.2004726    9.2004726    9.2004726    55.355403 
   12200    298.90804   -10466.676            0   -9576.5793   -2974.7891    780.90995    9.2087423    9.2087423    9.2087423    71.074276 
   12300    302.45181   -10493.569            0   -9592.9194   -17869.313    783.39037     9.218482     9.218482     9.218482    55.273936 
   12400    293.69863   -10477.965            0   -9603.3806    95.234244    785.92213     9.228402     9.228402     9.228402    72.272934 
   12500    299.02203   -10499.601            0   -9609.1642   -15052.849    788.48922    9.2384388    9.2384388    9.2384388    58.200868 
   12600    294.91667   -10490.154            0   -9611.9429   -23809.448     790.5822    9.2466058    9.2466058    9.2466058    61.850833 
   12700    295.57375   -10494.299            0   -9614.1304   -12227.839    791.36386    9.2496522    9.2496522    9.2496522    66.739545 
   12800    294.13037   -10490.583            0   -9614.7135   -9804.0744    791.16116    9.2488624    9.2488624    9.2488624    82.342955 
   12900     303.5925   -10518.008            0    -9613.961   -5832.5799    790.29063     9.245469     9.245469     9.245469    60.036722 
   13000     291.8331   -10481.596            0   -9612.5667    5837.5835    788.82466    9.2397487    9.2397487    9.2397487    78.400491 
Loop time of 15.3952 on 16 procs for 1000 steps with 1000 atoms

Performance: 5.612 ns/day, 4.276 hours/ns, 64.955 timesteps/s
94.6% CPU use with 16 MPI tasks x no OpenMP threads

MPI task timing breakdown:
Section |  min time  |  avg time  |  max time  |%varavg| %total
---------------------------------------------------------------
Pair    | 1.6375     | 1.7243     | 1.8165     |   3.3 | 11.20
Neigh   | 0.57966    | 0.6107     | 0.65883    |   2.2 |  3.97
Comm    | 0.42928    | 0.53697    | 0.6543     |   7.6 |  3.49
Output  | 8.5376     | 8.7883     | 12.495     |  32.3 | 57.08
Modify  | 0.02048    | 3.7281     | 3.979      |  49.6 | 24.22
Other   |            | 0.006907   |            |       |  0.04

Nlocal:    62.5 ave 68 max 57 min
Histogram: 2 2 0 1 3 2 2 1 1 2
Nghost:    1852.12 ave 1874 max 1833 min
Histogram: 1 1 3 2 2 3 0 3 0 1
Neighs:    0 ave 0 max 0 min
Histogram: 16 0 0 0 0 0 0 0 0 0
FullNghs:  18733.9 ave 20348 max 17119 min
Histogram: 2 1 1 2 2 1 3 2 1 1

Total # of neighbors = 299742
Ave neighs/atom = 299.742
Neighbor list builds = 1000
Dangerous builds not checked
Setting up Verlet run ...
  Unit style    : real
  Current step  : 13000
  Time step     : 1
Per MPI rank memory allocation (min/avg/max) = 4.577 | 4.578 | 4.579 Mbytes
Step Temp E_pair E_mol TotEng Press Volume Lx Ly Lz S/CPU 
   13000     291.8331   -10481.596            0   -9612.5667    5837.5835    788.82466    9.2397487    9.2397487    9.2397487            0 
   13100    306.17479   -10522.623            0   -9610.8866    6698.6243    787.48913    9.2345312    9.2345312    9.2345312    50.107727 
   13200     301.8885   -10506.457            0   -9607.4843      14548.2    786.34624    9.2300617    9.2300617    9.2300617    73.235482 
   13300    302.89461   -10505.709            0   -9603.7402   -3267.4089    785.27739    9.2258778    9.2258778    9.2258778     47.07501 
   13400    297.59566   -10484.491            0   -9598.3018   -1722.4662    783.99223    9.2208421    9.2208421    9.2208421    80.865363 
   13500    297.56898   -10479.335            0    -9593.225    3142.3239    782.62691    9.2154863    9.2154863    9.2154863    54.282114 
   13600    291.28488   -10453.125            0   -9585.7285    23437.524    781.49995    9.2110608    9.2110608    9.2110608    78.769823 
   13700    319.05025   -10530.632            0   -9580.5545    8531.7495    781.09634    9.2094749    9.2094749    9.2094749    46.875862 
   13800    309.42198   -10495.074            0   -9573.6677    33476.638     781.3574    9.2105008    9.2105008    9.2105008    59.819736 
   13900    305.01705   -10477.706            0   -9569.4173    8852.5755    782.67293     9.215667     9.215667     9.215667    67.342481 
   14000    303.10687   -10468.862            0   -9566.2613    3063.1363    784.78623    9.2239539    9.2239539    9.2239539     58.01109 
Loop time of 16.8476 on 16 procs for 1000 steps with 1000 atoms

Performance: 5.128 ns/day, 4.680 hours/ns, 59.356 timesteps/s
94.6% CPU use with 16 MPI tasks x no OpenMP threads

MPI task timing breakdown:
Section |  min time  |  avg time  |  max time  |%varavg| %total
---------------------------------------------------------------
Pair    | 1.6789     | 1.7394     | 1.8899     |   3.9 | 10.32
Neigh   | 0.59475    | 0.61493    | 0.69438    |   3.1 |  3.65
Comm    | 0.35079    | 0.58046    | 0.65396    |   9.6 |  3.45
Output  | 9.2873     | 9.5781     | 13.884     |  35.9 | 56.85
Modify  | 0.020987   | 4.3278     | 4.6187     |  53.5 | 25.69
Other   |            | 0.006965   |            |       |  0.04

Nlocal:    62.5 ave 68 max 56 min
Histogram: 1 1 2 3 0 2 1 2 1 3
Nghost:    1850.31 ave 1873 max 1834 min
Histogram: 2 2 0 5 2 1 2 1 0 1
Neighs:    0 ave 0 max 0 min
Histogram: 16 0 0 0 0 0 0 0 0 0
FullNghs:  18805.2 ave 20438 max 16736 min
Histogram: 1 0 3 3 0 1 2 2 0 4

Total # of neighbors = 300884
Ave neighs/atom = 300.884
Neighbor list builds = 1000
Dangerous builds not checked
Setting up Verlet run ...
  Unit style    : real
  Current step  : 14000
  Time step     : 1
Per MPI rank memory allocation (min/avg/max) = 4.577 | 4.578 | 4.579 Mbytes
Step Temp E_pair E_mol TotEng Press Volume Lx Ly Lz S/CPU 
   14000    303.10687   -10468.862            0   -9566.2613    3063.1363    784.78623    9.2239539    9.2239539    9.2239539            0 
   14100    308.31523   -10481.147            0   -9563.0366   -4259.1909    787.10532    9.2330308    9.2330308    9.2330308    69.682075 
   14200    310.89963   -10487.026            0   -9561.2205   -2291.8746    789.44199    9.2421584    9.2421584    9.2421584    58.725746 
   14300    299.97787   -10451.368            0   -9558.0847   -8038.5475    791.49217    9.2501521    9.2501521    9.2501521    70.782593 
   14400    300.84812   -10453.417            0   -9557.5422   -19449.339    792.94168    9.2557955    9.2557955    9.2557955    53.464807 
   14500    290.78535   -10421.926            0   -9556.0164   -9742.8255    793.43492    9.2577142    9.2577142    9.2577142    62.243408 
   14600    311.62935   -10483.847            0    -9555.868    6037.3858    793.16523    9.2566652    9.2566652    9.2566652     70.67212 
   14700    302.87192   -10457.375            0   -9555.4738    17560.681    792.75732    9.2550781    9.2550781    9.2550781    67.163597 
   14800    294.85193   -10434.885            0   -9556.8666   -1857.5257     792.5254    9.2541755    9.2541755    9.2541755     63.01201 
   14900       307.73   -10474.521            0   -9558.1532   -14305.671    792.04684    9.2523124    9.2523124    9.2523124    60.186591 
   15000    305.78312   -10472.083            0   -9561.5133    2239.4416    790.75595    9.2472832    9.2472832    9.2472832    61.298257 
Loop time of 15.8115 on 16 procs for 1000 steps with 1000 atoms

Performance: 5.464 ns/day, 4.392 hours/ns, 63.245 timesteps/s
94.6% CPU use with 16 MPI tasks x no OpenMP threads

MPI task timing breakdown:
Section |  min time  |  avg time  |  max time  |%varavg| %total
---------------------------------------------------------------
Pair    | 1.643      | 1.7019     | 1.8451     |   3.8 | 10.76
Neigh   | 0.59042    | 0.6097     | 0.67921    |   2.8 |  3.86
Comm    | 0.35628    | 0.56863    | 0.64174    |   9.2 |  3.60
Output  | 8.6023     | 8.8746     | 12.903     |  34.9 | 56.13
Modify  | 0.020715   | 4.0498     | 4.3222     |  51.7 | 25.61
Other   |            | 0.006871   |            |       |  0.04

Nlocal:    62.5 ave 68 max 53 min
Histogram: 1 0 0 0 4 1 3 2 4 1
Nghost:    1856.5 ave 1886 max 1833 min
Histogram: 2 3 0 0 3 4 1 2 0 1
Neighs:    0 ave 0 max 0 min
Histogram: 16 0 0 0 0 0 0 0 0 0
FullNghs:  18658 ave 20382 max 15758 min
Histogram: 1 0 0 0 4 2 2 2 4 1

Total # of neighbors = 298528
Ave neighs/atom = 298.528
Neighbor list builds = 1000
Dangerous builds not checked
Setting up Verlet run ...
  Unit style    : real
  Current step  : 15000
  Time step     : 1
Per MPI rank memory allocation (min/avg/max) = 4.577 | 4.578 | 4.579 Mbytes
Step Temp E_pair E_mol TotEng Press Volume Lx Ly Lz S/CPU 
   15000    305.78312   -10472.083            0   -9561.5133    2239.4416    790.75595    9.2472832    9.2472832    9.2472832            0 
   15100    303.64081   -10469.254            0   -9565.0634   -4314.8871    788.89272    9.2400144    9.2400144    9.2400144    47.943092 
   15200    302.59255   -10470.494            0   -9569.4249    13571.987    786.35653     9.230102     9.230102     9.230102    64.395644 
   15300    304.42889   -10482.421            0    -9575.884   -8744.1205    783.62423    9.2193992    9.2193992    9.2193992    55.950651 
   15400    306.75365   -10496.691            0   -9583.2314    1181.8608    780.89252    9.2086738    9.2086738    9.2086738    76.364392 
   15500     311.4608   -10519.598            0   -9592.1208    18213.248    778.64807    9.1998427    9.1998427    9.1998427     44.40803 
   15600    305.80073   -10512.781            0    -9602.159    9321.1634    777.21764    9.1942057    9.1942057    9.1942057    59.789112 
   15700    300.20526   -10505.093            0   -9611.1331    10479.583     776.5521    9.1915806    9.1915806    9.1915806     60.64613 
   15800    306.34045   -10533.239            0   -9621.0093    7057.1605    776.28927    9.1905435    9.1905435    9.1905435    61.192696 
   15900    302.64161   -10530.574            0   -9629.3587   -4556.5889    776.22804    9.1903019    9.1903019    9.1903019    70.219094 
   16000    301.58461   -10534.859            0   -9636.7916     3655.491    776.01485    9.1894604    9.1894604    9.1894604    47.811785 
Loop time of 17.4587 on 16 procs for 1000 steps with 1000 atoms

Performance: 4.949 ns/day, 4.850 hours/ns, 57.278 timesteps/s
94.5% CPU use with 16 MPI tasks x no OpenMP threads

MPI task timing breakdown:
Section |  min time  |  avg time  |  max time  |%varavg| %total
---------------------------------------------------------------
Pair    | 1.6856     | 1.7454     | 1.7998     |   2.7 | 10.00
Neigh   | 0.59282    | 0.60941    | 0.64807    |   1.9 |  3.49
Comm    | 0.38832    | 0.48068    | 0.55314    |   6.8 |  2.75
Output  | 9.856      | 10.155     | 14.595     |  36.0 | 58.17
Modify  | 0.020329   | 4.4609     | 4.7607     |  54.3 | 25.55
Other   |            | 0.006932   |            |       |  0.04

Nlocal:    62.5 ave 66 max 60 min
Histogram: 5 0 0 3 0 3 2 0 1 2
Nghost:    1874 ave 1894 max 1854 min
Histogram: 3 1 1 2 0 1 3 1 1 3
Neighs:    0 ave 0 max 0 min
Histogram: 16 0 0 0 0 0 0 0 0 0
FullNghs:  19044 ave 20365 max 18050 min
Histogram: 4 1 0 3 1 2 2 1 0 2

Total # of neighbors = 304704
Ave neighs/atom = 304.704
Neighbor list builds = 1000
Dangerous builds not checked
Setting up Verlet run ...
  Unit style    : real
  Current step  : 16000
  Time step     : 1
Per MPI rank memory allocation (min/avg/max) = 4.577 | 4.578 | 4.579 Mbytes
Step Temp E_pair E_mol TotEng Press Volume Lx Ly Lz S/CPU 
   16000    301.58461   -10534.859            0   -9636.7916     3655.491    776.01485    9.1894604    9.1894604    9.1894604            0 
   16100    291.34953    -10508.55            0   -9640.9609    16306.892    775.96274    9.1892547    9.1892547    9.1892547    56.752116 
   16200    304.53048   -10552.687            0   -9645.8471    6412.2756    776.57877    9.1916858    9.1916858    9.1916858    60.104456 
   16300    297.42794   -10533.955            0   -9648.2655    2682.3171    777.56167    9.1955621    9.1955621    9.1955621    72.138814 
   16400    297.74732   -10535.425            0   -9648.7845    17490.469    778.70159    9.2000535    9.2000535    9.2000535    58.221356 
   16500    302.35486   -10549.464            0   -9649.1025    12736.029    780.82209    9.2083969    9.2083969    9.2083969    54.685071 
   16600    289.35761   -10507.989            0   -9646.3314    425.75926    783.34377    9.2182991    9.2182991    9.2182991    63.047035 
   16700    288.96948   -10502.402            0   -9641.8999    641.10515    785.59821     9.227134     9.227134     9.227134    48.638607 
   16800    284.48218   -10482.439            0   -9635.2994   -15174.002    787.44885    9.2343738    9.2343738    9.2343738    37.547456 
   16900    291.00777   -10492.925            0   -9626.3535   -9995.5515    788.28304    9.2376335    9.2376335    9.2376335    72.882597 
   17000    296.89085   -10499.073            0   -9614.9827    2542.8782     788.4862     9.238427     9.238427     9.238427    54.813661 
Loop time of 17.8601 on 16 procs for 1000 steps with 1000 atoms

Performance: 4.838 ns/day, 4.961 hours/ns, 55.991 timesteps/s
94.6% CPU use with 16 MPI tasks x no OpenMP threads

MPI task timing breakdown:
Section |  min time  |  avg time  |  max time  |%varavg| %total
---------------------------------------------------------------
Pair    | 1.6592     | 1.7478     | 1.9186     |   5.0 |  9.79
Neigh   | 0.58925    | 0.61305    | 0.68837    |   3.1 |  3.43
Comm    | 0.35254    | 0.59833    | 0.70667    |  11.5 |  3.35
Output  | 9.7602     | 10.083     | 14.872     |  38.9 | 56.46
Modify  | 0.020711   | 4.8108     | 5.1341     |  56.4 | 26.94
Other   |            | 0.006935   |            |       |  0.04

Nlocal:    62.5 ave 67 max 59 min
Histogram: 2 1 3 2 0 2 3 2 0 1
Nghost:    1850.88 ave 1874 max 1826 min
Histogram: 1 1 1 3 2 1 2 4 0 1
Neighs:    0 ave 0 max 0 min
Histogram: 16 0 0 0 0 0 0 0 0 0
FullNghs:  18734.2 ave 20206 max 17459 min
Histogram: 1 2 1 2 3 1 3 2 0 1

Total # of neighbors = 299748
Ave neighs/atom = 299.748
Neighbor list builds = 1000
Dangerous builds not checked
Setting up Verlet run ...
  Unit style    : real
  Current step  : 17000
  Time step     : 1
Per MPI rank memory allocation (min/avg/max) = 4.577 | 4.578 | 4.579 Mbytes
Step Temp E_pair E_mol TotEng Press Volume Lx Ly Lz S/CPU 
   17000    296.89085   -10499.073            0   -9614.9827    2542.8782     788.4862     9.238427     9.238427     9.238427            0 
   17100    297.02695   -10486.845            0    -9602.349   -20942.245    788.17972    9.2372299    9.2372299    9.2372299    70.612639 
   17200     303.2131    -10491.48            0   -9588.5629   -7718.1737    787.00815    9.2326508    9.2326508    9.2326508    55.893734 
   17300    313.43722    -10511.95            0   -9578.5877   -8471.5338    785.14742    9.2253688    9.2253688    9.2253688    66.264618 
   17400     306.4662    -10484.25            0   -9571.6458    9973.1115    783.26993    9.2180095    9.2180095    9.2180095    53.022737 
   17500    309.13198   -10488.395            0   -9567.8532    16387.111    782.19939     9.213808     9.213808     9.213808    67.406795 
   17600    307.92813   -10484.137            0   -9567.1797     2986.838    781.73785    9.2119954    9.2119954    9.2119954    56.880178 
   17700    311.85846   -10496.504            0   -9567.8428    3530.9324     781.9496    9.2128271    9.2128271    9.2128271    49.213284 
   17800    315.74796   -10510.413            0   -9570.1692    12129.352    783.11101     9.217386     9.217386     9.217386    52.525347 
   17900    304.16587   -10480.171            0   -9574.4166    343.51884    785.29509    9.2259471    9.2259471    9.2259471    59.508109 
   18000     295.9102   -10459.372            0   -9578.2022    1805.0681     787.9209    9.2362187    9.2362187    9.2362187    69.910668 
Loop time of 16.8887 on 16 procs for 1000 steps with 1000 atoms

Performance: 5.116 ns/day, 4.691 hours/ns, 59.211 timesteps/s
94.6% CPU use with 16 MPI tasks x no OpenMP threads

MPI task timing breakdown:
Section |  min time  |  avg time  |  max time  |%varavg| %total
---------------------------------------------------------------
Pair    | 1.656      | 1.7335     | 1.949      |   5.2 | 10.26
Neigh   | 0.5962     | 0.61163    | 0.68257    |   2.7 |  3.62
Comm    | 0.33602    | 0.62192    | 0.70876    |  10.9 |  3.68
Output  | 9.7246     | 9.9885     | 13.893     |  31.9 | 59.14
Modify  | 0.020666   | 3.9261     | 4.1902     |  50.9 | 23.25
Other   |            | 0.006931   |            |       |  0.04

Nlocal:    62.5 ave 69 max 56 min
Histogram: 1 2 2 0 2 3 3 1 0 2
Nghost:    1854.12 ave 1878 max 1824 min
Histogram: 1 2 1 0 2 3 2 1 1 3
Neighs:    0 ave 0 max 0 min
Histogram: 16 0 0 0 0 0 0 0 0 0
FullNghs:  18708.9 ave 20594 max 16675 min
Histogram: 1 1 3 0 2 3 2 1 1 2

Total # of neighbors = 299342
Ave neighs/atom = 299.342
Neighbor list builds = 1000
Dangerous builds not checked
Setting up Verlet run ...
  Unit style    : real
  Current step  : 18000
  Time step     : 1
Per MPI rank memory allocation (min/avg/max) = 4.577 | 4.578 | 4.579 Mbytes
Step Temp E_pair E_mol TotEng Press Volume Lx Ly Lz S/CPU 
   18000     295.9102   -10459.372            0   -9578.2022    1805.0681     787.9209    9.2362187    9.2362187    9.2362187            0 
   18100     305.7747   -10494.078            0   -9583.5328   -13191.121    790.51614    9.2463482    9.2463482    9.2463482    62.289061 
   18200    299.36679   -10478.268            0   -9586.8053   -7217.8212    792.59041    9.2544285    9.2544285    9.2544285    60.341305 
   18300    298.00633   -10478.392            0   -9590.9804   -12131.688    793.95503    9.2597366    9.2597366    9.2597366    57.196627 
   18400    293.29072   -10466.831            0   -9593.4616   -3397.8461    794.52943    9.2619691    9.2619691    9.2619691    70.016048 
   18500    284.43291   -10443.498            0   -9596.5057    -13403.06    794.19534    9.2606708    9.2606708    9.2606708    55.053892 
   18600    301.81459   -10498.496            0   -9599.7441    1907.3218    793.06929     9.256292     9.256292     9.256292    67.381113 
   18700    318.21872   -10550.489            0    -9602.888   -14226.481    791.55832    9.2504098    9.2504098    9.2504098    63.216313 
   18800    295.28841   -10484.459            0   -9605.1409   -5888.6619    789.58391    9.2427122    9.2427122    9.2427122    66.130268 
   18900     292.3881   -10479.843            0   -9609.1614    904.62115    787.60807    9.2349961    9.2349961    9.2349961     59.51509 
   19000    293.27302   -10487.708            0   -9614.3913    1488.7366    785.46597    9.2266162    9.2266162    9.2266162     69.13824 
Loop time of 15.9604 on 16 procs for 1000 steps with 1000 atoms

Performance: 5.413 ns/day, 4.433 hours/ns, 62.655 timesteps/s
94.6% CPU use with 16 MPI tasks x no OpenMP threads

MPI task timing breakdown:
Section |  min time  |  avg time  |  max time  |%varavg| %total
---------------------------------------------------------------
Pair    | 1.6074     | 1.6992     | 1.8488     |   4.2 | 10.65
Neigh   | 0.58356    | 0.60887    | 0.67091    |   2.4 |  3.81
Comm    | 0.33579    | 0.5471     | 0.66373    |   9.5 |  3.43
Output  | 8.9018     | 9.1662     | 13.077     |  33.4 | 57.43
Modify  | 0.020644   | 3.9322     | 4.1968     |  50.9 | 24.64
Other   |            | 0.006876   |            |       |  0.04

Nlocal:    62.5 ave 69 max 57 min
Histogram: 2 0 1 3 3 3 2 0 1 1
Nghost:    1869.56 ave 1885 max 1844 min
Histogram: 1 0 0 2 3 1 1 3 2 3
Neighs:    0 ave 0 max 0 min
Histogram: 16 0 0 0 0 0 0 0 0 0
FullNghs:  18784.9 ave 20714 max 16972 min
Histogram: 2 0 0 4 4 2 0 2 1 1

Total # of neighbors = 300558
Ave neighs/atom = 300.558
Neighbor list builds = 1000
Dangerous builds not checked
Setting up Verlet run ...
  Unit style    : real
  Current step  : 19000
  Time step     : 1
Per MPI rank memory allocation (min/avg/max) = 4.577 | 4.578 | 4.579 Mbytes
Step Temp E_pair E_mol TotEng Press Volume Lx Ly Lz S/CPU 
   19000    293.27302   -10487.708            0   -9614.3913    1488.7366    785.46597    9.2266162    9.2266162    9.2266162            0 
   19100    305.01114   -10529.058            0   -9620.7869    9895.9888    783.24213    9.2179004    9.2179004    9.2179004     67.70119 
   19200    291.45774   -10495.221            0   -9627.3096   -5092.0698    781.30531    9.2102961    9.2102961    9.2102961    57.847061 
   19300    288.70179   -10496.649            0   -9636.9439    23042.797    779.69932    9.2039811    9.2039811    9.2039811    60.728644 
   19400    295.06535   -10526.151            0    -9647.497    10818.921    779.09198    9.2015907    9.2015907    9.2015907    60.404812 
   19500    288.91248   -10518.897            0   -9658.5646    17242.212    779.24754    9.2022031    9.2022031    9.2022031    66.546913 
   19600    277.22268   -10493.266            0   -9667.7445   -5418.1569    780.11563    9.2056189    9.2056189    9.2056189    44.601034 
   19700    288.04252    -10533.74            0   -9675.9984    12048.141    780.66167    9.2077662    9.2077662    9.2077662    75.274899 
   19800    283.13047   -10523.843            0    -9680.729    3119.8658    780.95101    9.2089037    9.2089037    9.2089037     48.12404 
   19900    298.14031    -10572.67            0   -9684.8587    8934.1337    780.87821    9.2086175    9.2086175    9.2086175    75.605756 
   20000     279.3007   -10516.007            0   -9684.2969   -5765.6213     780.9062    9.2087275    9.2087275    9.2087275    42.374898 
Loop time of 17.3417 on 16 procs for 1000 steps with 1000 atoms

Performance: 4.982 ns/day, 4.817 hours/ns, 57.664 timesteps/s
94.6% CPU use with 16 MPI tasks x no OpenMP threads

MPI task timing breakdown:
Section |  min time  |  avg time  |  max time  |%varavg| %total
---------------------------------------------------------------
Pair    | 1.6632     | 1.7542     | 2.0061     |   5.5 | 10.12
Neigh   | 0.58265    | 0.61507    | 0.71416    |   3.8 |  3.55
Comm    | 0.30798    | 0.65829    | 0.78062    |  12.3 |  3.80
Output  | 9.4775     | 9.7816     | 14.285     |  37.2 | 56.40
Modify  | 0.020954   | 4.5256     | 4.83       |  54.7 | 26.10
Other   |            | 0.006949   |            |       |  0.04

Nlocal:    62.5 ave 70 max 59 min
Histogram: 6 1 2 3 0 0 2 0 1 1
Nghost:    1861.75 ave 1876 max 1842 min
Histogram: 1 1 2 1 0 2 1 4 2 2
Neighs:    0 ave 0 max 0 min
Histogram: 16 0 0 0 0 0 0 0 0 0
FullNghs:  18880 ave 21350 max 17784 min
Histogram: 6 1 2 3 0 0 2 1 0 1

Total # of neighbors = 302080
Ave neighs/atom = 302.08
Neighbor list builds = 1000
Dangerous builds not checked
Setting up Verlet run ...
  Unit style    : real
  Current step  : 20000
  Time step     : 1
Per MPI rank memory allocation (min/avg/max) = 4.577 | 4.578 | 4.579 Mbytes
Step Temp E_pair E_mol TotEng Press Volume Lx Ly Lz S/CPU 
   20000     279.3007   -10516.007            0   -9684.2969   -5765.6213     780.9062    9.2087275    9.2087275    9.2087275            0 
   20100    298.04156   -10570.986            0   -9683.4687   -7364.0847    781.17612    9.2097884    9.2097884    9.2097884    49.038837 
   20200    295.71028   -10560.076            0   -9679.5012   -2356.1691    781.05836    9.2093256    9.2093256    9.2093256    73.426733 
   20300    289.55535   -10532.846            0   -9670.5999   -4169.7615     780.4459    9.2069178    9.2069178    9.2069178    51.914067 
   20400    290.56111   -10521.453            0   -9656.2115    119.82642    779.43072    9.2029241    9.2029241    9.2029241    56.989228 
   20500    304.42347   -10544.851            0   -9638.3295   -1777.8547    778.73858    9.2001992    9.2001992    9.2001992    61.586378 
   20600     294.2607   -10496.104            0   -9619.8459    13507.649     778.2122    9.1981258    9.1981258    9.1981258    42.034398 
   20700    307.39825   -10522.177            0   -9606.7975    3423.6686    778.21031    9.1981184    9.1981184    9.1981184    66.436411 
   20800    303.77171    -10504.42            0   -9599.8394     2806.336    778.47085    9.1991447    9.1991447    9.1991447    62.041195 
   20900     305.6585   -10505.363            0   -9595.1641    11362.904    779.30633    9.2024345    9.2024345    9.2024345    59.193898 
   21000    302.94076   -10495.416            0   -9593.3104    -2353.776    780.56446     9.207384     9.207384     9.207384    81.535617 
Loop time of 17.1177 on 16 procs for 1000 steps with 1000 atoms

Performance: 5.047 ns/day, 4.755 hours/ns, 58.419 timesteps/s
94.6% CPU use with 16 MPI tasks x no OpenMP threads

MPI task timing breakdown:
Section |  min time  |  avg time  |  max time  |%varavg| %total
---------------------------------------------------------------
Pair    | 1.6709     | 1.7562     | 1.8621     |   3.7 | 10.26
Neigh   | 0.58969    | 0.61474    | 0.69022    |   2.9 |  3.59
Comm    | 0.4167     | 0.59784    | 0.70613    |   8.5 |  3.49
Output  | 9.9776     | 10.24      | 14.12      |  31.3 | 59.82
Modify  | 0.020681   | 3.9021     | 4.1646     |  50.7 | 22.80
Other   |            | 0.006952   |            |       |  0.04

Nlocal:    62.5 ave 68 max 56 min
Histogram: 1 0 0 2 3 5 1 2 0 2
Nghost:    1853.06 ave 1868 max 1841 min
Histogram: 1 3 2 3 0 3 0 1 1 2
Neighs:    0 ave 0 max 0 min
Histogram: 16 0 0 0 0 0 0 0 0 0
FullNghs:  18890.2 ave 20541 max 16826 min
Histogram: 1 0 0 2 3 5 1 2 0 2

Total # of neighbors = 302244
Ave neighs/atom = 302.244
Neighbor list builds = 1000
Dangerous builds not checked
Setting up Verlet run ...
  Unit style    : real
  Current step  : 21000
  Time step     : 1
Per MPI rank memory allocation (min/avg/max) = 4.577 | 4.578 | 4.579 Mbytes
Step Temp E_pair E_mol TotEng Press Volume Lx Ly Lz S/CPU 
   21000    302.94076   -10495.416            0   -9593.3104    -2353.776    780.56446     9.207384     9.207384     9.207384            0 
   21100    303.33671   -10495.608            0   -9592.3226   -7524.3619    781.89517    9.2126133    9.2126133    9.2126133    49.373295 
   21200    299.93784   -10485.676            0   -9592.5128   -3267.3113    783.16844    9.2176113    9.2176113    9.2176113    77.595993 
   21300    303.31856   -10495.402            0   -9592.1716   -8791.3064    784.55894    9.2230634    9.2230634    9.2230634    57.670972 
   21400    304.13388    -10499.62            0   -9593.9611   -8671.5606    785.63943    9.2272954    9.2272954    9.2272954    78.191903 
   21500    293.38847   -10467.854            0   -9594.1935   -9180.7428    786.05245    9.2289121    9.2289121    9.2289121    53.149459 
   21600    299.47243   -10487.987            0   -9596.2092   -16299.942    786.02889    9.2288199    9.2288199    9.2288199    59.704497 
   21700    305.99482   -10510.091            0   -9598.8911   -6484.2836    785.38395    9.2262951    9.2262951    9.2262951    57.084877 
   21800    303.74049   -10506.721            0   -9602.2339    -942.1581    784.42612    9.2225429    9.2225429    9.2225429     56.27641 
   21900    296.36937   -10489.663            0   -9607.1254    877.49025     783.6472    9.2194892    9.2194892    9.2194892    82.908607 
   22000    298.06458   -10499.737            0   -9612.1513   -3899.5359    783.20327     9.217748     9.217748     9.217748    61.448784 
Loop time of 16.2457 on 16 procs for 1000 steps with 1000 atoms

Performance: 5.318 ns/day, 4.513 hours/ns, 61.555 timesteps/s
94.6% CPU use with 16 MPI tasks x no OpenMP threads

MPI task timing breakdown:
Section |  min time  |  avg time  |  max time  |%varavg| %total
---------------------------------------------------------------
Pair    | 1.6717     | 1.7389     | 1.9461     |   5.0 | 10.70
Neigh   | 0.5914     | 0.61402    | 0.71023    |   3.5 |  3.78
Comm    | 0.31819    | 0.62126    | 0.71239    |  11.3 |  3.82
Output  | 9.0418     | 9.3082     | 13.242     |  33.3 | 57.30
Modify  | 0.021026   | 3.9564     | 4.2229     |  51.1 | 24.35
Other   |            | 0.006944   |            |       |  0.04

Nlocal:    62.5 ave 67 max 58 min
Histogram: 1 2 0 2 2 2 5 1 0 1
Nghost:    1848.56 ave 1861 max 1829 min
Histogram: 1 0 1 0 1 6 1 3 1 2
Neighs:    0 ave 0 max 0 min
Histogram: 16 0 0 0 0 0 0 0 0 0
FullNghs:  18840.9 ave 20199 max 17534 min
Histogram: 2 1 0 3 1 2 5 1 0 1

Total # of neighbors = 301454
Ave neighs/atom = 301.454
Neighbor list builds = 1000
Dangerous builds not checked
Setting up Verlet run ...
  Unit style    : real
  Current step  : 22000
  Time step     : 1
Per MPI rank memory allocation (min/avg/max) = 4.577 | 4.578 | 4.579 Mbytes
Step Temp E_pair E_mol TotEng Press Volume Lx Ly Lz S/CPU 
   22000    298.06458   -10499.737            0   -9612.1513   -3899.5359    783.20327     9.217748     9.217748     9.217748            0 
   22100    305.57822   -10528.932            0   -9618.9726    4845.0456    782.96211    9.2168018    9.2168018    9.2168018    65.987711 
   22200    304.06508   -10530.417            0   -9624.9635    6839.1459    783.23325    9.2178656    9.2178656    9.2178656    60.036918 
   22300    284.36124    -10475.98            0   -9629.2012    2712.0904    783.72434    9.2197917    9.2197917    9.2197917    62.853515 
   22400    278.82082   -10464.535            0   -9634.2537   -10736.778    784.12698    9.2213704    9.2213704    9.2213704    67.867855 
   22500    293.88547   -10514.489            0   -9639.3485   -9486.8167    784.02975    9.2209892    9.2209892    9.2209892    51.277552 
   22600    287.20703   -10496.069            0   -9640.8153   -3067.5371     783.5995    9.2193022    9.2193022    9.2193022    64.356711 
   22700    298.84911    -10532.47            0   -9642.5482   -5787.2854    783.05544     9.217168     9.217168     9.217168    64.913543 
   22800    296.01083   -10522.412            0   -9640.9425   -10145.692    782.60019    9.2153814    9.2153814    9.2153814    56.340534 
   22900    301.92998   -10535.019            0   -9635.9228    1122.3056    781.90711    9.2126602    9.2126602    9.2126602    76.794168 
   23000    296.50985   -10511.831            0   -9628.8754    8212.4061    781.13857    9.2096409    9.2096409    9.2096409    59.777765 
Loop time of 16.04 on 16 procs for 1000 steps with 1000 atoms

Performance: 5.387 ns/day, 4.456 hours/ns, 62.344 timesteps/s
94.6% CPU use with 16 MPI tasks x no OpenMP threads

MPI task timing breakdown:
Section |  min time  |  avg time  |  max time  |%varavg| %total
---------------------------------------------------------------
Pair    | 1.6788     | 1.7357     | 1.8097     |   2.9 | 10.82
Neigh   | 0.59191    | 0.60954    | 0.64264    |   2.0 |  3.80
Comm    | 0.42964    | 0.52644    | 0.60108    |   6.9 |  3.28
Output  | 8.7747     | 9.0507     | 13.14      |  35.1 | 56.43
Modify  | 0.020411   | 4.1108     | 4.387      |  52.1 | 25.63
Other   |            | 0.006903   |            |       |  0.04

Nlocal:    62.5 ave 67 max 58 min
Histogram: 2 0 1 1 5 3 0 2 0 2
Nghost:    1865.88 ave 1877 max 1855 min
Histogram: 3 0 1 1 5 1 0 2 0 3
Neighs:    0 ave 0 max 0 min
Histogram: 16 0 0 0 0 0 0 0 0 0
FullNghs:  18886.6 ave 20365 max 17457 min
Histogram: 2 0 1 3 3 2 1 2 0 2

Total # of neighbors = 302186
Ave neighs/atom = 302.186
Neighbor list builds = 1000
Dangerous builds not checked
Setting up Verlet run ...
  Unit style    : real
  Current step  : 23000
  Time step     : 1
Per MPI rank memory allocation (min/avg/max) = 4.577 | 4.578 | 4.579 Mbytes
Step Temp E_pair E_mol TotEng Press Volume Lx Ly Lz S/CPU 
   23000    296.50985   -10511.831            0   -9628.8754    8212.4061    781.13857    9.2096409    9.2096409    9.2096409            0 
   23100    290.55505   -10482.108            0   -9616.8845    13385.825    780.36086    9.2065834    9.2065834    9.2065834    54.892866 
   23200    298.22627   -10492.139            0   -9604.0723    2764.3785    780.07927    9.2054759    9.2054759    9.2054759    49.255028 
   23300    305.85131   -10502.155            0   -9591.3821     10888.71    780.09881    9.2055528    9.2055528    9.2055528    66.370058 
   23400    309.59499   -10501.339            0   -9579.4182   -11313.764    780.56379    9.2073814    9.2073814    9.2073814    52.363162 
   23500    299.66502   -10461.948            0   -9569.5965    15472.812     781.1146    9.2095466    9.2095466    9.2095466    60.906177 
   23600    310.25495    -10488.09            0   -9564.2039    6916.7046    782.38121    9.2145218    9.2145218    9.2145218    62.728972 
   23700    306.34978   -10471.747            0   -9559.4896   -17965.667    784.44138    9.2226027    9.2226027    9.2226027    58.566087 
   23800    312.73806   -10488.934            0    -9557.653   -6582.5427    785.95856    9.2285446    9.2285446    9.2285446    57.822049 
   23900    303.79969   -10462.449            0   -9557.7856   -5359.1263    787.34518    9.2339685    9.2339685    9.2339685    69.693196 
   24000    308.76654    -10478.77            0   -9559.3159   -5150.3929    788.45585    9.2383085    9.2383085    9.2383085    47.678431 
Loop time of 17.4736 on 16 procs for 1000 steps with 1000 atoms

Performance: 4.945 ns/day, 4.854 hours/ns, 57.229 timesteps/s
94.5% CPU use with 16 MPI tasks x no OpenMP threads

MPI task timing breakdown:
Section |  min time  |  avg time  |  max time  |%varavg| %total
---------------------------------------------------------------
Pair    | 1.6732     | 1.7423     | 1.9091     |   4.3 |  9.97
Neigh   | 0.59142    | 0.61261    | 0.68677    |   3.0 |  3.51
Comm    | 0.35599    | 0.59658    | 0.68028    |  10.0 |  3.41
Output  | 9.6505     | 9.9566     | 14.493     |  37.1 | 56.98
Modify  | 0.020726   | 4.5587     | 4.8649     |  54.9 | 26.09
Other   |            | 0.00694    |            |       |  0.04

Nlocal:    62.5 ave 69 max 57 min
Histogram: 2 1 2 1 2 3 3 1 0 1
Nghost:    1835.38 ave 1852 max 1816 min
Histogram: 1 1 2 2 2 1 1 2 2 2
Neighs:    0 ave 0 max 0 min
Histogram: 16 0 0 0 0 0 0 0 0 0
FullNghs:  18724.4 ave 20802 max 16920 min
Histogram: 2 0 4 0 2 2 4 0 1 1

Total # of neighbors = 299590
Ave neighs/atom = 299.59
Neighbor list builds = 1000
Dangerous builds not checked
Setting up Verlet run ...
  Unit style    : real
  Current step  : 24000
  Time step     : 1
Per MPI rank memory allocation (min/avg/max) = 4.577 | 4.578 | 4.579 Mbytes
Step Temp E_pair E_mol TotEng Press Volume Lx Ly Lz S/CPU 
   24000    308.76654    -10478.77            0   -9559.3159   -5150.3929    788.45585    9.2383085    9.2383085    9.2383085            0 
   24100    303.91558   -10466.022            0   -9561.0129    4793.4447    788.89091    9.2400074    9.2400074    9.2400074     76.60441 
   24200    295.23177   -10443.125            0   -9563.9747   -4531.4936    789.41959     9.242071     9.242071     9.242071    56.785592 
   24300    308.80276   -10486.577            0    -9567.015    6730.8229    790.12466    9.2448217    9.2448217    9.2448217    73.632878 
   24400    297.20986   -10456.406            0   -9571.3655   -5657.9892    790.96563    9.2481004    9.2481004    9.2481004    56.949028 
   24500    296.02779   -10456.672            0   -9575.1518   -6050.4567    791.63199    9.2506968    9.2506968    9.2506968    55.987077 
   24600    300.05921   -10473.129            0   -9579.6039   -3603.6852    792.19103    9.2528738    9.2528738    9.2528738    57.207267 
   24700    305.64504   -10495.792            0   -9585.6329   -8488.2269    792.46594     9.253944     9.253944     9.253944    57.930481 
   24800    294.36098   -10469.223            0   -9592.6662   -635.44558    792.00873     9.252164     9.252164     9.252164    55.723811 
   24900    300.60606   -10498.298            0   -9603.1441   -9318.4853    790.87171    9.2477344    9.2477344    9.2477344    62.269849 
   25000    292.26784   -10485.535            0   -9615.2115   -9150.5421    788.79452     9.239631     9.239631     9.239631     60.27682 
Loop time of 16.5003 on 16 procs for 1000 steps with 1000 atoms

Performance: 5.236 ns/day, 4.583 hours/ns, 60.605 timesteps/s
94.6% CPU use with 16 MPI tasks x no OpenMP threads

MPI task timing breakdown:
Section |  min time  |  avg time  |  max time  |%varavg| %total
---------------------------------------------------------------
Pair    | 1.61       | 1.705      | 1.864      |   4.1 | 10.33
Neigh   | 0.58729    | 0.61024    | 0.68632    |   3.1 |  3.70
Comm    | 0.33931    | 0.57391    | 0.69205    |   9.8 |  3.48
Output  | 9.0054     | 9.2951     | 13.582     |  36.3 | 56.33
Modify  | 0.020622   | 4.3092     | 4.5991     |  53.3 | 26.12
Other   |            | 0.006863   |            |       |  0.04

Nlocal:    62.5 ave 67 max 56 min
Histogram: 1 1 0 1 1 2 4 3 2 1
Nghost:    1850.94 ave 1873 max 1829 min
Histogram: 3 0 2 3 0 1 2 1 1 3
Neighs:    0 ave 0 max 0 min
Histogram: 16 0 0 0 0 0 0 0 0 0
FullNghs:  18713.9 ave 20096 max 16671 min
Histogram: 1 1 0 1 1 3 3 3 2 1

Total # of neighbors = 299422
Ave neighs/atom = 299.422
Neighbor list builds = 1000
Dangerous builds not checked
Setting up Verlet run ...
  Unit style    : real
  Current step  : 25000
  Time step     : 1
Per MPI rank memory allocation (min/avg/max) = 4.577 | 4.578 | 4.579 Mbytes
Step Temp E_pair E_mol TotEng Press Volume Lx Ly Lz S/CPU 
   25000    292.26784   -10485.535            0   -9615.2115   -9150.5421    788.79452     9.239631     9.239631     9.239631            0 
   25100    295.89748   -10509.573            0   -9628.4408    -4005.328    786.11564    9.2291594    9.2291594    9.2291594    56.437802 
   25200    297.38182   -10529.679            0   -9644.1272    1470.1645    782.92534    9.2166575    9.2166575    9.2166575    59.092241 
   25300    293.91965   -10532.236            0   -9656.9933    17653.668    779.38343     9.202738     9.202738     9.202738     55.18895 
   25400    296.63722   -10548.597            0   -9665.2616    17056.582    776.12136    9.1898808    9.1898808    9.1898808      61.0273 
   25500    295.34347   -10548.944            0   -9669.4619    18435.219     773.6364    9.1800624    9.1800624    9.1800624    59.734807 
   25600    290.27753   -10536.949            0   -9672.5521     15757.27    772.43293    9.1752997    9.1752997    9.1752997    68.988149 
   25700    292.31478    -10543.13            0   -9672.6663    12040.198    772.51217    9.1756135    9.1756135    9.1756135    46.800375 
   25800    295.93744   -10553.714            0   -9672.4633    17344.151    773.53691    9.1796688    9.1796688    9.1796688    56.814285 
   25900    299.65464   -10562.688            0   -9670.3678    7596.6899    775.50987    9.1874667    9.1874667    9.1874667    53.595895 
   26000    295.08723    -10544.66            0    -9665.941    1202.9412    778.14439    9.1978586    9.1978586    9.1978586    52.909039 
Loop time of 17.691 on 16 procs for 1000 steps with 1000 atoms

Performance: 4.884 ns/day, 4.914 hours/ns, 56.526 timesteps/s
94.5% CPU use with 16 MPI tasks x no OpenMP threads

MPI task timing breakdown:
Section |  min time  |  avg time  |  max time  |%varavg| %total
---------------------------------------------------------------
Pair    | 1.6733     | 1.768      | 1.9956     |   5.7 |  9.99
Neigh   | 0.59349    | 0.61521    | 0.71648    |   3.6 |  3.48
Comm    | 0.29319    | 0.62168    | 0.73742    |  12.9 |  3.51
Output  | 9.7551     | 10.065     | 14.657     |  37.4 | 56.89
Modify  | 0.021212   | 4.6139     | 4.9243     |  55.2 | 26.08
Other   |            | 0.006981   |            |       |  0.04

Nlocal:    62.5 ave 68 max 55 min
Histogram: 1 2 0 1 2 1 2 3 2 2
Nghost:    1863.62 ave 1893 max 1836 min
Histogram: 2 3 2 0 0 3 2 0 0 4
Neighs:    0 ave 0 max 0 min
Histogram: 16 0 0 0 0 0 0 0 0 0
FullNghs:  18978 ave 21011 max 16310 min
Histogram: 1 0 2 2 1 2 1 5 1 1

Total # of neighbors = 303648
Ave neighs/atom = 303.648
Neighbor list builds = 1000
Dangerous builds not checked
Setting up Verlet run ...
  Unit style    : real
  Current step  : 26000
  Time step     : 1
Per MPI rank memory allocation (min/avg/max) = 4.577 | 4.578 | 4.579 Mbytes
Step Temp E_pair E_mol TotEng Press Volume Lx Ly Lz S/CPU 
   26000    295.08723    -10544.66            0    -9665.941    1202.9412    778.14439    9.1978586    9.1978586    9.1978586            0 
   26100    298.86338   -10552.556            0   -9662.5916    1012.8627    781.69551    9.2118291    9.2118291    9.2118291    70.936109 
   26200    289.15863   -10516.914            0   -9655.8494   -7919.0979    785.73539    9.2276711    9.2276711    9.2276711    61.267816 
   26300    295.90081   -10529.935            0   -9648.7926    -5106.738     789.5243    9.2424796    9.2424796    9.2424796    53.910726 
   26400    287.37013   -10496.736            0   -9640.9973   -8255.9281     792.7696    9.2551259    9.2551259    9.2551259    62.743497 
   26500    298.21716   -10521.444            0   -9633.4046   -32790.236      794.906    9.2634322    9.2634322    9.2634322    54.620724 
   26600    298.61815   -10514.842            0   -9625.6084   -20442.922    795.14628    9.2643654    9.2643654    9.2643654    57.316437 
   26700    294.94201   -10496.674            0    -9618.387    -20279.08    793.92198    9.2596082    9.2596082    9.2596082    65.261877 
   26800    295.52691   -10492.802            0    -9612.773   -2511.5307    791.72074    9.2510424    9.2510424    9.2510424    53.890964 
   26900    310.91669   -10533.819            0   -9607.9622    5390.0211    789.25328    9.2414219    9.2414219    9.2414219    66.058316 
   27000    300.36456   -10497.123            0   -9602.6886    11321.235    787.10144    9.2330156    9.2330156    9.2330156    47.406621 
Loop time of 17.0773 on 16 procs for 1000 steps with 1000 atoms

Performance: 5.059 ns/day, 4.744 hours/ns, 58.557 timesteps/s
94.6% CPU use with 16 MPI tasks x no OpenMP threads

MPI task timing breakdown:
Section |  min time  |  avg time  |  max time  |%varavg| %total
---------------------------------------------------------------
Pair    | 1.6257     | 1.7068     | 1.9162     |   5.2 |  9.99
Neigh   | 0.58364    | 0.60878    | 0.67967    |   2.8 |  3.56
Comm    | 0.29563    | 0.5757     | 0.68329    |  11.5 |  3.37
Output  | 9.5102     | 9.8041     | 14.157     |  35.9 | 57.41
Modify  | 0.020773   | 4.375      | 4.669      |  53.7 | 25.62
Other   |            | 0.006901   |            |       |  0.04

Nlocal:    62.5 ave 68 max 57 min
Histogram: 2 1 1 3 0 2 4 1 0 2
Nghost:    1846.12 ave 1866 max 1825 min
Histogram: 1 0 3 2 3 2 0 2 1 2
Neighs:    0 ave 0 max 0 min
Histogram: 16 0 0 0 0 0 0 0 0 0
FullNghs:  18784.6 ave 20613 max 17231 min
Histogram: 2 2 1 2 2 2 2 1 0 2

Total # of neighbors = 300554
Ave neighs/atom = 300.554
Neighbor list builds = 1000
Dangerous builds not checked
Setting up Verlet run ...
  Unit style    : real
  Current step  : 27000
  Time step     : 1
Per MPI rank memory allocation (min/avg/max) = 4.577 | 4.578 | 4.579 Mbytes
Step Temp E_pair E_mol TotEng Press Volume Lx Ly Lz S/CPU 
   27000    300.36456   -10497.123            0   -9602.6886    11321.235    787.10144    9.2330156    9.2330156    9.2330156            0 
   27100    303.26153   -10502.492            0   -9599.4308    4490.5294    785.39971    9.2263568    9.2263568    9.2263568    55.310727 
   27200    304.63795    -10506.47            0   -9599.3106    4993.8018     784.1527    9.2214712    9.2214712    9.2214712    73.249401 
   27300    310.55218   -10523.354            0   -9598.5824    7027.2073     783.2542    9.2179478    9.2179478    9.2179478    53.619281 
   27400    305.43664   -10508.192            0   -9598.6543    396.08899    782.83008    9.2162837    9.2162837    9.2162837    65.590024 
   27500    301.75442   -10497.154            0    -9598.581    5023.9356    782.42984    9.2147128    9.2147128    9.2147128     68.52494 
   27600    293.10497   -10472.193            0   -9599.3766    -2852.674    782.16911    9.2136891    9.2136891    9.2136891    53.902716 
   27700    295.85623   -10483.585            0    -9602.576   -14570.602    781.91212    9.2126799    9.2126799    9.2126799    60.590498 
   27800    298.35093   -10493.506            0   -9605.0682    3167.3051    781.61588    9.2115163    9.2115163    9.2115163     52.54745 
   27900    303.65842   -10512.105            0   -9607.8619    1807.8528      781.529     9.211175     9.211175     9.211175    73.889667 
   28000    295.96777   -10491.792            0   -9610.4505    15306.542    781.76429    9.2120993    9.2120993    9.2120993    44.356532 
Loop time of 17.0386 on 16 procs for 1000 steps with 1000 atoms

[...]
  407700    299.57966   -11575.241            0   -10683.144   -24034.826    730.27089     9.005227     9.005227     9.005227    58.184285 
  407800    282.24526   -11523.637            0   -10683.159   -22045.205    729.40391    9.0016619    9.0016619    9.0016619    69.139042 
  407900    297.97048   -11571.169            0   -10683.864    -18136.65    727.48903    8.9937777    8.9937777    8.9937777    49.156277 
  408000    297.46738   -11569.967            0    -10684.16    2237.5013    725.08467    8.9838586    8.9838586    8.9838586    72.125879 
  408100    296.46121   -11563.873            0   -10681.062    10984.577     723.1094    8.9756933    8.9756933    8.9756933    65.403983 
  408200    295.12443   -11556.303            0   -10677.473    21424.517    721.77761    8.9701795    8.9701795    8.9701795    61.682708 
  408300    295.55476   -11552.896            0   -10672.784     11880.45    721.40722    8.9686449    8.9686449    8.9686449    43.123973 
  408400    296.18897   -11549.382            0   -10667.382     14878.32    721.95126    8.9708988    8.9708988    8.9708988    66.184316 
  408500     291.0499   -11528.267            0    -10661.57     17494.32    723.42794     8.977011     8.977011     8.977011     57.04622 
  408600    292.04506   -11523.428            0   -10653.768    716.61177    725.42309    8.9852561    8.9852561    8.9852561    51.859153 
  408700    298.97155   -11533.395            0   -10643.109   -22547.774    727.44373     8.993591     8.993591     8.993591    67.468614 
  408800    305.17692    -11541.69            0   -10632.925   -15980.062    728.68584     8.998707     8.998707     8.998707    48.615082 
  408900    305.16097   -11530.734            0   -10622.017    -12438.37    728.98624    8.9999434    8.9999434    8.9999434    58.978376 
  409000    302.51032   -11515.097            0   -10614.273   -16842.494    728.42267    8.9976235    8.9976235    8.9976235    70.170291 
  409100    300.85581   -11503.206            0   -10607.308   -3530.2429    727.17822    8.9924967    8.9924967    8.9924967    57.448458 
  409200    301.61528   -11500.248            0   -10602.089    15689.913    725.71365    8.9864556    8.9864556    8.9864556    60.306035 
  409300    309.60971   -11522.285            0   -10600.321    13589.261     724.6906    8.9822308    8.9822308    8.9822308    72.121602 
  409400    306.78735   -11512.143            0   -10598.583    5687.0224    724.44273    8.9812066    8.9812066    8.9812066    54.011993 
  409500    309.80846   -11521.994            0   -10599.437    11653.283    724.81065    8.9827267    8.9827267    8.9827267    48.970112 
  409600    315.23397   -11539.548            0   -10600.835   -2647.4352    725.51724    8.9856447    8.9856447    8.9856447    56.592805 
  409700     296.8634   -11488.061            0   -10604.053    5475.5353    726.10262    8.9880608    8.9880608    8.9880608    71.895447 
  409800    303.56183   -11514.464            0   -10610.509    1592.1088    726.58159    8.9900367    8.9900367    8.9900367    51.750557 
  409900    298.22779   -11506.741            0   -10618.669    1426.8988    727.10825    8.9922083    8.9922083    8.9922083    73.569404 
  410000    290.44658   -11494.069            0   -10629.169   -3754.2783    727.59322    8.9942071    8.9942071    8.9942071    57.654325 
  410100    299.26736   -11536.496            0   -10645.329   -10815.941    727.74416     8.994829     8.994829     8.994829    58.183288 
  410200    299.85931   -11552.968            0   -10660.038    4631.7113    727.45833    8.9936512    8.9936512    8.9936512    64.552479 
  410300    297.38959   -11560.005            0   -10674.429   -15917.226    726.80218    8.9909464    8.9909464    8.9909464    49.458347 
  410400    294.03465    -11560.25            0   -10684.665    4670.5947    725.62514    8.9860902    8.9860902    8.9860902    50.067932 
  410500    300.95406   -11586.173            0   -10689.983    2293.2334    724.34735    8.9808124    8.9808124    8.9808124    51.206689 
  410600    306.66311   -11606.024            0   -10692.834    14794.928    723.15735    8.9758917    8.9758917    8.9758917    54.005527 
  410700    295.69194   -11573.947            0   -10693.427    12784.862    722.39841    8.9727506    8.9727506    8.9727506    52.393906 
  410800    296.13271   -11575.046            0   -10693.213    13130.534    722.29611     8.972327     8.972327     8.972327    50.258215 
  410900    299.05712   -11583.578            0   -10693.037    11384.807    722.88722    8.9747739    8.9747739    8.9747739    59.507108 
  411000    282.14539    -11530.35            0   -10690.169   -6109.9797    723.91526    8.9790263    8.9790263    8.9790263    56.405944 
  411100    284.07047   -11532.831            0   -10686.917   -6759.6674    724.96004    8.9833438    8.9833438    8.9833438    73.191326 
  411200    291.08384   -11550.501            0   -10683.703   -15852.471    725.78631    8.9867554    8.9867554    8.9867554     45.84588 
  411300    283.55019   -11522.469            0   -10678.105    -1395.192    726.05813    8.9878772    8.9878772    8.9878772    52.583948 
  411400    297.37497   -11558.041            0    -10672.51   -3040.3901    726.00888     8.987674     8.987674     8.987674    60.385806 
  411500    281.96577   -11504.739            0   -10665.093   -4012.9243    725.78022    8.9867303    8.9867303    8.9867303    57.286871 
  411600    300.03353   -11551.328            0   -10657.879    3370.3432    725.28318    8.9846784    8.9846784    8.9846784    46.850943 
  411700    290.34137    -11513.28            0   -10648.693    8269.1271    724.74482    8.9824548    8.9824548    8.9824548    61.735649 
  411800    293.71708   -11515.262            0   -10640.623   -6769.4961    724.40958    8.9810696    8.9810696    8.9810696     58.49015 
  411900    296.26763   -11515.818            0   -10633.584    8313.9889    724.22465    8.9803053    8.9803053    8.9803053    59.105976 
  412000    290.35137   -11491.944            0   -10627.327    17144.914    724.35723    8.9808532    8.9808532    8.9808532    76.203639 
  412100    299.09245   -11512.976            0    -10622.33    8376.7109    725.28794     8.984698     8.984698     8.984698     56.35717 
  412200    306.22861   -11530.932            0   -10619.035    73.526487    726.61972    8.9901939    8.9901939    8.9901939    55.128685 
  412300     308.1403   -11534.661            0   -10617.072   -8000.3713    727.87982    8.9953879    8.9953879    8.9953879    68.154194 
  412400    294.33034   -11491.336            0   -10614.871   -10688.305    728.64291    8.9985302    8.9985302    8.9985302    59.912774 
  412500    299.23824   -11505.797            0   -10614.717   -1229.0796    728.92918    8.9997086    8.9997086    8.9997086    45.925593 
  412600    293.91073   -11487.616            0     -10612.4   -20011.013    728.99599    8.9999835    8.9999835    8.9999835    62.881977 
  412700    309.96238   -11537.037            0   -10614.022   -5408.2899     728.3214    8.9972066    8.9972066    8.9972066    65.339704 
  412800    304.06353   -11520.108            0   -10614.659   -8272.3812    727.04469    8.9919462    8.9919462    8.9919462     56.18222 
  412900    304.30784   -11522.771            0   -10616.594    9068.7861    725.55903    8.9858173    8.9858173    8.9858173    69.064951 
  413000    303.68249   -11522.751            0   -10618.437    17481.709    724.61862    8.9819334    8.9819334    8.9819334    51.092334 
  413100    300.21611   -11516.377            0   -10622.385     24459.37    724.42385    8.9811285    8.9811285    8.9811285     47.64145 
  413200    300.98275   -11528.414            0   -10632.139    14698.117    725.16612     8.984195     8.984195     8.984195    53.229057 
  413300    296.37117   -11529.231            0   -10646.689    142.48623    726.44101    8.9894568    8.9894568    8.9894568    67.010237 
  413400    298.64787   -11557.575            0   -10668.253   -12046.329    727.71895    8.9947251    8.9947251    8.9947251    63.023456 
  413500    298.66207   -11577.918            0   -10688.554   -15434.907    728.64887    8.9985548    8.9985548    8.9985548    49.929175 
  413600     280.8224    -11536.36            0   -10700.119   -13140.306    728.66226    8.9986099    8.9986099    8.9986099    70.599685 
  413700    297.97558   -11596.691            0   -10709.371   -2600.0119    727.58089    8.9941563    8.9941563    8.9941563    54.575239 
  413800    282.53229   -11552.267            0   -10710.934   -5796.9653    725.72651    8.9865086    8.9865086    8.9865086     82.07884 
  413900    288.82757   -11571.055            0   -10710.976    11864.535    723.55702    8.9775449    8.9775449    8.9775449    54.739145 
  414000    303.28441   -11611.975            0   -10708.846    18971.544    721.84426    8.9704556    8.9704556    8.9704556    53.358361 
  414100    282.83835   -11545.984            0   -10703.739    27466.297    720.95634     8.966776     8.966776     8.966776    54.084301 
  414200    290.46963   -11564.464            0   -10699.495    15730.877    721.27797    8.9681092    8.9681092    8.9681092    73.599874 
  414300    290.51213    -11556.53            0   -10691.434      3263.39    722.58503    8.9735231    8.9735231    8.9735231    56.456705 
  414400    292.61048   -11556.398            0   -10685.054   -2658.6845    724.52884    8.9815624    8.9815624    8.9815624    65.021469 
  414500    300.80315   -11570.983            0   -10675.242     2935.452     726.5935    8.9900858    8.9900858    8.9900858    55.427828 
  414600    296.69111   -11548.133            0   -10664.638   -754.79261    728.38741    8.9974784    8.9974784    8.9974784    57.529994 
  414700    302.12532   -11554.444            0   -10654.766   -22707.003    729.55131    9.0022682    9.0022682    9.0022682     67.29453 
  414800    307.02403   -11560.362            0   -10646.097   -19463.469    729.58262     9.002397     9.002397     9.002397    53.250704 
  414900    296.78153    -11521.56            0   -10637.795   -5649.9934    728.67429    8.9986594    8.9986594    8.9986594    58.709632 
  415000    299.13105   -11523.178            0   -10632.417   -8741.2307    727.23773     8.992742     8.992742     8.992742    72.603164 
  415100    301.68621   -11526.663            0   -10628.293   -2991.0685    725.43458    8.9853035    8.9853035    8.9853035    59.526869 
  415200    295.19199   -11502.359            0   -10623.327    17719.893     723.7396       8.9783       8.9783       8.9783    49.660624 
  415300     308.2438    -11538.85            0   -10620.952   -1071.6319    722.85145    8.9746258    8.9746258    8.9746258    66.328531 
  415400    304.39657   -11525.803            0   -10619.362    7373.5937    722.82661     8.974523     8.974523     8.974523    51.927902 
  415500      309.034   -11540.414            0   -10620.164    13360.738    723.90368    8.9789784    8.9789784    8.9789784    68.441262 
  415600    306.03489   -11533.421            0   -10622.101    6853.8403    726.06654    8.9879119    8.9879119    8.9879119    56.377182 
  415700    303.74471   -11529.101            0   -10624.601   -9935.0798    728.37233    8.9974163    8.9974163    8.9974163    63.720677 
  415800    300.42385   -11521.371            0    -10626.76     -12032.9    730.15107    9.0047344    9.0047344    9.0047344    56.027069 
  415900    289.80347   -11492.544            0   -10629.559    -14270.53    731.00709    9.0082521    9.0082521    9.0082521    70.428784 
  416000    300.46283   -11529.409            0   -10634.682     -15821.5    730.86036    9.0076493    9.0076493    9.0076493    50.306883 
  416100    291.03658   -11506.624            0   -10639.967   -9412.1411    729.44178    9.0018177    9.0018177    9.0018177    53.398179 
  416200    308.28282   -11566.015            0   -10648.001   -4388.2537     727.0025    8.9917723    8.9917723    8.9917723    72.832761 
  416300    302.46448   -11557.825            0   -10657.137   -4608.6331    724.15753    8.9800279    8.9800279    8.9800279    55.461852 
  416400     297.6825   -11554.833            0   -10668.386    17731.857    721.27574       8.9681       8.9681       8.9681    59.324585 
  416500    294.88062   -11560.438            0   -10682.334    27703.681    719.03376    8.9587983    8.9587983    8.9587983    50.884133 
  416600    295.85491   -11578.279            0   -10697.274    30240.023     718.4762    8.9564821    8.9564821    8.9564821    58.190176 
  416700    292.38421   -11580.366            0   -10709.696     35129.14     719.8396    8.9621439    8.9621439    8.9621439     57.70868 
  416800    282.79371   -11561.735            0   -10719.624    1992.5253    722.82215    8.9745046    8.9745046    8.9745046    71.656521 
  416900    296.88104   -11609.748            0   -10725.687   -356.63365    726.56744    8.9899783    8.9899783    8.9899783    57.838008 
  417000    273.55987    -11538.28            0   -10723.665    -33616.33    729.99249    9.0040825    9.0040825    9.0040825    59.166528 
  417100    291.56976   -11590.877            0   -10722.632   -38982.884    731.78373    9.0114411    9.0114411    9.0114411    61.679525 
  417200    297.38485   -11605.502            0    -10719.94   -48041.637    731.37203    9.0097509    9.0097509    9.0097509    57.223365 
  417300    285.42667   -11562.558            0   -10712.606    -25905.02    728.56161    8.9981956    8.9981956    8.9981956    61.932175 
  417400    293.98769   -11581.203            0   -10705.758    8940.6826     724.1779     8.980112     8.980112     8.980112    66.308724 
  417500     284.5582   -11542.968            0   -10695.602    32067.886    719.83831    8.9621385    8.9621385    8.9621385     48.89918 
  417600    289.73269   -11547.073            0   -10684.299    38774.832    717.00772    8.9503759    8.9503759    8.9503759     49.00709 
  417700    300.36859    -11572.16            0   -10677.713    46785.501    716.52118     8.948351     8.948351     8.948351    70.128338 
  417800    295.21715   -11550.396            0    -10671.29    28690.817    718.51278    8.9566341    8.9566341    8.9566341    50.248505 
  417900    291.01409   -11533.612            0   -10667.022    20332.925    722.29578    8.9723256    8.9723256    8.9723256    52.027482 
  418000    303.62276   -11567.139            0   -10663.002   -2837.0275    726.96118     8.991602     8.991602     8.991602    61.776057 
  418100    293.51433   -11530.107            0   -10656.071   -27376.652    731.21302    9.0090979    9.0090979    9.0090979    62.450939 
  418200    295.90967   -11531.068            0   -10649.899   -43124.431    733.89197    9.0200867    9.0200867    9.0200867     44.17155 
  418300     298.9972   -11535.258            0   -10644.895   -30417.699    734.06738    9.0208053    9.0208053    9.0208053     56.06434 
  418400    289.51777   -11500.652            0   -10638.517   -28761.746    731.94504    9.0121032    9.0121032    9.0121032    74.283563 
  418500     307.1957   -11551.615            0   -10636.839    -19121.27    727.87304    8.9953599    8.9953599    8.9953599    54.969069 
  418600    305.71118   -11542.818            0   -10632.462    17337.435    722.90855    8.9748621    8.9748621    8.9748621    60.769031 
  418700    304.57512   -11533.614            0   -10626.642    34555.931    718.82808     8.957944     8.957944     8.957944    55.794974 
  418800    312.25381   -11554.238            0   -10624.399    37632.322    717.01385    8.9504015    8.9504015    8.9504015    52.862195 
  418900    301.35919   -11520.645            0   -10623.249    37236.703    717.88356    8.9540188    8.9540188    8.9540188    58.051079 
  419000    292.36512   -11494.815            0   -10624.201    30118.517    720.83621     8.966278     8.966278     8.966278    65.962715 
  419100    311.71316   -11556.264            0   -10628.036    5037.8757    724.97308    8.9833977    8.9833977    8.9833977    66.252548 
  419200    310.72469   -11555.027            0   -10629.742   -27073.154    729.14697    9.0006048    9.0006048    9.0006048     57.27733 
  419300     299.5764   -11522.303            0   -10630.216   -32121.901     731.9445     9.012101     9.012101     9.012101      73.0228 
  419400    292.07351   -11503.819            0   -10634.074   -30645.539    732.60937    9.0148289    9.0148289    9.0148289    41.914503 
  419500    306.77813   -11556.091            0   -10642.559   -43355.872    731.27807     9.009365     9.009365     9.009365    60.532218 
  419600    296.93557   -11534.726            0   -10650.502     -27403.6    728.37653    8.9974335    8.9974335    8.9974335    61.158634 
  419700    301.67185   -11560.451            0   -10662.124    3545.1601    724.54503    8.9816293    8.9816293    8.9816293    61.991936 
  419800    310.30418   -11600.903            0    -10676.87    21890.108    720.85528     8.966357     8.966357     8.966357    58.484487 
  419900    302.02342   -11588.705            0   -10689.331    24385.424    718.70436    8.9574301    8.9574301    8.9574301    58.556061 
  420000    290.66975   -11566.701            0   -10701.136    25104.674    718.42063    8.9562512    8.9562512    8.9562512    59.401408 
  420100    299.61975   -11604.241            0   -10712.025    17734.065     719.8137    8.9620364    8.9620364    8.9620364    65.490034 
  420200    311.09181   -11645.626            0   -10719.248    2375.0905    722.08693    8.9714608    8.9714608    8.9714608    52.654102 
  420300    284.31381   -11567.734            0   -10721.096   -2286.0093    724.52913    8.9815636    8.9815636    8.9815636    45.582864 
  420400     279.9929   -11555.507            0   -10721.736   -22100.059    726.68072    8.9904455    8.9904455    8.9904455    65.921813 
  420500     290.7419    -11587.58            0   -10721.801   -16202.392    727.72657    8.9947565    8.9947565    8.9947565    56.345483 
  420600    279.21576   -11548.832            0   -10717.376   -13009.281    727.51889    8.9939008    8.9939008    8.9939008     59.82268 
  420700    296.26579   -11595.197            0   -10712.968   -1318.2875    726.23674    8.9886142    8.9886142    8.9886142    72.085871 
  420800    280.86852   -11540.716            0   -10704.337    3106.3245    724.33376    8.9807562    8.9807562    8.9807562    63.107792 
  420900    294.74065    -11575.08            0   -10697.393    8748.3563    722.35027    8.9725512    8.9725512    8.9725512    61.420641 
  421000    298.54734   -11576.943            0    -10687.92     18854.58     720.9637    8.9668065    8.9668065    8.9668065    64.727847 
Loop time of 1743.63 on 16 procs for 100000 steps with 1000 atoms

Performance: 4.955 ns/day, 4.843 hours/ns, 57.352 timesteps/s
94.5% CPU use with 16 MPI tasks x no OpenMP threads

MPI task timing breakdown:
Section |  min time  |  avg time  |  max time  |%varavg| %total
---------------------------------------------------------------
Pair    | 166.15     | 175.35     | 183.75     |  35.9 | 10.06
Neigh   | 61.053     | 63.387     | 68.657     |  24.0 |  3.64
Comm    | 40.545     | 51.288     | 61.947     |  76.9 |  2.94
Output  | 983.99     | 1013.5     | 1450.7     | 354.6 | 58.13
Modify  | 2.0809     | 439.38     | 468.9      | 538.7 | 25.20
Other   |            | 0.7125     |            |       |  0.04

Nlocal:    62.5 ave 66 max 58 min
Histogram: 1 0 1 3 0 3 2 4 1 1
Nghost:    1959.12 ave 1974 max 1944 min
Histogram: 2 0 1 2 4 2 0 2 1 2
Neighs:    0 ave 0 max 0 min
Histogram: 16 0 0 0 0 0 0 0 0 0
FullNghs:  20403.8 ave 21741 max 19035 min
Histogram: 1 0 1 4 1 3 3 1 1 1

Total # of neighbors = 326460
Ave neighs/atom = 326.46
Neighbor list builds = 100000
Dangerous builds not checked
Total wall time: 1:59:42
