LAMMPS (16 Mar 2018)
Reading data file ...
  orthogonal box = (-4.71957 -4.71957 -4.71957) to (4.71957 4.71957 4.71957)
  2 by 2 by 4 MPI processor grid
  reading atoms ...
  1000 atoms
Reading potential file /home/fs01/ajm529/lammps-16Mar18/potentials/sw_potentials/AG/eps2.23.sw with DATE: 2008-01-29
Neighbor list info ...
  update every 1 steps, delay 0 steps, check no
  max neighbors/atom: 2000, page size: 100000
  master list distance cutoff = 3.836
  ghost atom cutoff = 3.836
  binsize = 1.918, bins = 5 5 5
  1 neighbor lists, perpetual/occasional/extra = 1 0 0
  (1) pair sw, perpetual
      attributes: full, newton on
      pair build: full/bin/atomonly
      stencil: full/bin/3d
      bin: standard
Setting up Verlet run ...
  Unit style    : real
  Current step  : 0
  Time step     : 1
Per MPI rank memory allocation (min/avg/max) = 3.517 | 3.519 | 3.521 Mbytes
Step Temp E_pair E_mol TotEng Press Volume Lx Ly Lz S/CPU 
       0          300   -10097.223            0   -9203.8738    -22557.71     841.0037    9.4391445    9.4391445    9.4391445            0 
     100    320.02656   -10162.128            0   -9209.1433   -53452.437    839.21807    9.4324593    9.4324593    9.4324593    38.044507 
     200    315.32299   -10161.992            0   -9223.0145   -36871.685    833.55649    9.4112002    9.4112002    9.4112002    45.378544 
     300    341.44655   -10262.272            0   -9245.5022   -28890.162    824.82287     9.378216     9.378216     9.378216    49.868256 
     400    344.03296    -10294.19            0   -9269.7183   -10751.626    814.34757    9.3383454    9.3383454    9.3383454    33.901799 
     500    335.87414   -10291.113            0   -9290.9371   -1119.1827    803.61383    9.2971349    9.2971349    9.2971349    40.255148 
     600    326.11753   -10278.236            0   -9307.1138    19250.929    794.27124    9.2609658    9.2609658    9.2609658     34.22535 
     700    329.99173   -10304.782            0   -9322.1232    22576.408     787.4729    9.2344678    9.2344678    9.2344678    46.003364 
     800    328.44875   -10316.538            0   -9338.4733    12303.305    783.32096    9.2182097    9.2182097    9.2182097    52.428866 
     900    324.09763    -10324.95            0   -9359.8426    29696.477    781.27937    9.2101942    9.2101942    9.2101942    37.281593 
    1000    326.67519   -10354.712            0   -9381.9295     13793.82    781.16253     9.209735     9.209735     9.209735    42.811124 
Loop time of 24.2924 on 16 procs for 1000 steps with 1000 atoms

Performance: 3.557 ns/day, 6.748 hours/ns, 41.165 timesteps/s
94.3% CPU use with 16 MPI tasks x no OpenMP threads

MPI task timing breakdown:
Section |  min time  |  avg time  |  max time  |%varavg| %total
---------------------------------------------------------------
Pair    | 1.5394     | 1.6845     | 1.8389     |   5.0 |  6.93
Neigh   | 0.64995    | 0.68898    | 0.73549    |   2.6 |  2.84
Comm    | 0.59234    | 0.7708     | 0.95562    |   9.3 |  3.17
Output  | 14.364     | 14.784     | 21.033     |  42.0 | 60.86
Modify  | 0.10559    | 6.3551     | 6.7758     |  64.0 | 26.16
Other   |            | 0.008541   |            |       |  0.04

Nlocal:    62.5 ave 66 max 59 min
Histogram: 2 2 3 0 1 0 0 4 3 1
Nghost:    1855.94 ave 1869 max 1843 min
Histogram: 1 3 4 0 0 0 3 0 2 3
Neighs:    0 ave 0 max 0 min
Histogram: 16 0 0 0 0 0 0 0 0 0
FullNghs:  18882.2 ave 19948 max 17760 min
Histogram: 2 2 2 1 1 0 2 2 2 2

Total # of neighbors = 302116
Ave neighs/atom = 302.116
Neighbor list builds = 1000
Dangerous builds not checked
Setting up Verlet run ...
  Unit style    : real
  Current step  : 1000
  Time step     : 1
Per MPI rank memory allocation (min/avg/max) = 3.77 | 4.477 | 4.58 Mbytes
Step Temp E_pair E_mol TotEng Press Volume Lx Ly Lz S/CPU 
    1000    326.67519   -10354.712            0   -9381.9295     13793.82    781.16253     9.209735     9.209735     9.209735            0 
    1100    330.04716   -10387.027            0   -9404.2028    19457.066    782.68079    9.2156978    9.2156978    9.2156978    37.163515 
    1200    313.31337   -10357.436            0   -9424.4419   -2386.3858    785.30237    9.2259756    9.2259756    9.2259756    44.655638 
    1300    317.55471   -10390.991            0   -9445.3668   -371.61941     788.1806    9.2372333    9.2372333    9.2372333    43.664146 
    1400    307.56911   -10380.898            0   -9465.0102    1302.3192    791.20305    9.2490257    9.2490257    9.2490257    47.761981 
    1500    307.16557     -10397.4            0   -9482.7131   -12234.238    794.17981    9.2606104    9.2606104    9.2606104    53.412662 
    1600    310.90033   -10425.809            0   -9500.0005   -2222.2219    796.37741    9.2691443    9.2691443    9.2691443    49.371036 
    1700    304.40892   -10421.312            0   -9514.8345   -10347.664     798.0959    9.2758068    9.2758068    9.2758068     45.28092 
    1800     303.9496   -10435.453            0   -9530.3432   -27191.592    799.13433    9.2798281    9.2798281    9.2798281    51.047442 
    1900    286.56103   -10396.393            0   -9543.0637   -11914.996    799.40594    9.2808793    9.2808793    9.2808793    40.475541 
    2000    310.09811   -10480.756            0   -9557.3364   -3296.3811    799.19772    9.2800734    9.2800734    9.2800734    57.525476 
Loop time of 21.5882 on 16 procs for 1000 steps with 1000 atoms

Performance: 4.002 ns/day, 5.997 hours/ns, 46.322 timesteps/s
94.4% CPU use with 16 MPI tasks x no OpenMP threads

MPI task timing breakdown:
Section |  min time  |  avg time  |  max time  |%varavg| %total
---------------------------------------------------------------
Pair    | 1.6597     | 1.7446     | 1.9135     |   5.3 |  8.08
Neigh   | 0.66308    | 0.697      | 0.73565    |   2.4 |  3.23
Comm    | 0.58163    | 0.7881     | 0.892      |   9.9 |  3.65
Output  | 11.973     | 12.37      | 18.273     |  43.3 | 57.30
Modify  | 0.075119   | 5.9795     | 6.3787     |  62.3 | 27.70
Other   |            | 0.008686   |            |       |  0.04

Nlocal:    62.5 ave 68 max 57 min
Histogram: 1 2 3 0 1 3 1 2 2 1
Nghost:    1836.44 ave 1855 max 1815 min
Histogram: 1 1 0 2 3 2 3 1 1 2
Neighs:    0 ave 0 max 0 min
Histogram: 16 0 0 0 0 0 0 0 0 0
FullNghs:  18481.1 ave 20199 max 16621 min
Histogram: 1 0 3 2 0 4 1 3 1 1

Total # of neighbors = 295698
Ave neighs/atom = 295.698
Neighbor list builds = 1000
Dangerous builds not checked
Setting up Verlet run ...
  Unit style    : real
  Current step  : 2000
  Time step     : 1
Per MPI rank memory allocation (min/avg/max) = 4.576 | 4.578 | 4.58 Mbytes
Step Temp E_pair E_mol TotEng Press Volume Lx Ly Lz S/CPU 
    2000    310.09811   -10480.756            0   -9557.3364   -3296.3811    799.19772    9.2800734    9.2800734    9.2800734            0 
    2100    307.51166   -10485.753            0   -9570.0358   -18099.263    798.43015    9.2771015    9.2771015    9.2771015    55.024984 
    2200    314.01915   -10517.162            0   -9582.0669   -9776.5182    796.63185    9.2701314    9.2701314    9.2701314    40.937175 
    2300    299.56649     -10484.8            0   -9592.7419   -746.99775    793.96054     9.259758     9.259758     9.259758    45.696666 
    2400    290.95452   -10470.067            0   -9603.6538   -820.77252    791.19704    9.2490022    9.2490022    9.2490022    53.818538 
    2500    306.86919    -10528.84            0   -9615.0364    30.912144    788.55235    9.2386854    9.2386854    9.2386854    43.027224 
    2600    302.23183   -10524.789            0   -9624.7941    7546.1854    785.54321    9.2269187    9.2269187    9.2269187    44.952024 
    2700    303.54997   -10538.132            0   -9634.2117    11415.857    782.47796    9.2149017    9.2149017    9.2149017    56.254668 
    2800    302.04003   -10543.266            0   -9643.8419   -10185.148     780.1165    9.2056224    9.2056224    9.2056224    44.633182 
    2900    293.89149    -10527.22            0   -9652.0617   -136.42991    778.18064    9.1980015    9.1980015    9.1980015    54.948934 
    3000    286.43003   -10513.063            0   -9660.1234    5011.7974    776.57462    9.1916694    9.1916694    9.1916694    50.435368 
Loop time of 20.676 on 16 procs for 1000 steps with 1000 atoms

Performance: 4.179 ns/day, 5.743 hours/ns, 48.365 timesteps/s
94.4% CPU use with 16 MPI tasks x no OpenMP threads

MPI task timing breakdown:
Section |  min time  |  avg time  |  max time  |%varavg| %total
---------------------------------------------------------------
Pair    | 1.6283     | 1.7614     | 1.8987     |   4.7 |  8.52
Neigh   | 0.67067    | 0.70152    | 0.73576    |   2.1 |  3.39
Comm    | 0.66593    | 0.83798    | 0.99743    |   8.3 |  4.05
Output  | 11.77      | 12.123     | 17.326     |  38.6 | 58.63
Modify  | 0.041202   | 5.244      | 5.5967     |  58.7 | 25.36
Other   |            | 0.00865    |            |       |  0.04

Nlocal:    62.5 ave 74 max 56 min
Histogram: 2 2 4 3 0 2 1 1 0 1
Nghost:    1871.12 ave 1895 max 1850 min
Histogram: 1 1 1 3 2 5 1 1 0 1
Neighs:    0 ave 0 max 0 min
Histogram: 16 0 0 0 0 0 0 0 0 0
FullNghs:  19003 ave 22593 max 16876 min
Histogram: 2 2 3 4 1 1 2 0 0 1

Total # of neighbors = 304048
Ave neighs/atom = 304.048
Neighbor list builds = 1000
Dangerous builds not checked
Setting up Verlet run ...
  Unit style    : real
  Current step  : 3000
  Time step     : 1
Per MPI rank memory allocation (min/avg/max) = 4.576 | 4.578 | 4.58 Mbytes
Step Temp E_pair E_mol TotEng Press Volume Lx Ly Lz S/CPU 
    3000    286.43003   -10513.063            0   -9660.1234    5011.7974    776.57462    9.1916694    9.1916694    9.1916694            0 
    3100    288.50565   -10524.921            0      -9665.8     14029.76    775.48505    9.1873687    9.1873687    9.1873687    41.017611 
    3200     296.8573    -10554.22            0   -9670.2297    2892.3811    775.06432    9.1857069    9.1857069    9.1857069    54.434051 
    3300    299.95215   -10565.982            0   -9672.7754    11093.692    775.12479    9.1859457    9.1859457    9.1859457    55.103753 
    3400    294.94284   -10551.297            0   -9673.0077    1199.4551    775.57037    9.1877056    9.1877056    9.1877056    37.279175 
    3500    294.42174   -10549.982            0   -9673.2445    14531.358    776.51607    9.1914384    9.1914384    9.1914384    51.424041 
    3600    285.79258   -10522.302            0   -9671.2603    4836.6848    778.20258    9.1980879    9.1980879    9.1980879     42.47862 
    3700    290.95522   -10534.259            0   -9667.8444   -3806.4364    780.12809    9.2056679    9.2056679    9.2056679    45.798177 
    3800     285.6936   -10513.604            0   -9662.8573   -4072.6502    782.12697    9.2135236    9.2135236    9.2135236    54.797582 
    3900    299.67133   -10546.835            0   -9654.4647   -11673.122    784.06167    9.2211144    9.2211144    9.2211144     56.54813 
    4000    297.43593   -10530.569            0   -9644.8553    -2004.603    785.35562    9.2261842    9.2261842    9.2261842    43.396149 
Loop time of 21.1522 on 16 procs for 1000 steps with 1000 atoms

Performance: 4.085 ns/day, 5.876 hours/ns, 47.276 timesteps/s
94.4% CPU use with 16 MPI tasks x no OpenMP threads

MPI task timing breakdown:
Section |  min time  |  avg time  |  max time  |%varavg| %total
---------------------------------------------------------------
Pair    | 1.6811     | 1.7992     | 1.989      |   5.1 |  8.51
Neigh   | 0.66822    | 0.70179    | 0.74839    |   2.3 |  3.32
Comm    | 0.57363    | 0.80925    | 0.96082    |   9.3 |  3.83
Output  | 11.572     | 11.966     | 17.783     |  43.4 | 56.57
Modify  | 0.049323   | 5.8675     | 6.2613     |  62.0 | 27.74
Other   |            | 0.008672   |            |       |  0.04

Nlocal:    62.5 ave 68 max 57 min
Histogram: 1 1 2 1 4 2 1 2 0 2
Nghost:    1857.75 ave 1891 max 1828 min
Histogram: 2 1 3 0 4 0 2 2 0 2
Neighs:    0 ave 0 max 0 min
Histogram: 16 0 0 0 0 0 0 0 0 0
FullNghs:  18812.9 ave 20582 max 17093 min
Histogram: 1 0 2 2 4 2 2 1 1 1

Total # of neighbors = 301006
Ave neighs/atom = 301.006
Neighbor list builds = 1000
Dangerous builds not checked
Setting up Verlet run ...
  Unit style    : real
  Current step  : 4000
  Time step     : 1
Per MPI rank memory allocation (min/avg/max) = 4.576 | 4.578 | 4.58 Mbytes
Step Temp E_pair E_mol TotEng Press Volume Lx Ly Lz S/CPU 
    4000    297.43593   -10530.569            0   -9644.8553    -2004.603    785.35562    9.2261842    9.2261842    9.2261842            0 
    4100    294.91466   -10511.331            0   -9633.1253   -13868.666    785.88103    9.2282412    9.2282412    9.2282412    54.185194 
    4200     291.9514   -10491.219            0   -9621.8371   -4440.4994    785.56001    9.2269845    9.2269845    9.2269845    48.093598 
    4300    295.64374   -10490.278            0   -9609.9017   -4683.2437    784.77882    9.2239249    9.2239249    9.2239249    49.278077 
    4400    298.88663    -10490.38            0    -9600.347   -332.50433    783.79364    9.2200635    9.2200635    9.2200635      55.4544 
    4500    309.02469   -10512.776            0   -9592.5531    14768.202    783.22211    9.2178219    9.2178219    9.2178219     52.00858 
    4600     299.6245   -10478.536            0    -9586.305    21636.036     783.2204    9.2178152    9.2178152    9.2178152    37.195421 
    4700    300.13377    -10476.07            0   -9582.3224   -232.68882    783.92664     9.220585     9.220585     9.220585    39.930879 
    4800    295.96335   -10459.376            0   -9578.0481    14193.077    785.10221    9.2251917    9.2251917    9.2251917    47.241047 
    4900    306.08016   -10485.942            0   -9574.4871    1509.6618    786.14206    9.2292628    9.2292628    9.2292628    42.975475 
    5000    297.66386   -10457.849            0   -9571.4568   -10838.673    786.94705    9.2324119    9.2324119    9.2324119    47.837756 
Loop time of 21.4071 on 16 procs for 1000 steps with 1000 atoms

Performance: 4.036 ns/day, 5.946 hours/ns, 46.713 timesteps/s
94.4% CPU use with 16 MPI tasks x no OpenMP threads

MPI task timing breakdown:
Section |  min time  |  avg time  |  max time  |%varavg| %total
---------------------------------------------------------------
Pair    | 1.6539     | 1.7843     | 1.8984     |   5.0 |  8.33
Neigh   | 0.65378    | 0.70285    | 0.74149    |   2.9 |  3.28
Comm    | 0.6652     | 0.80022    | 0.97288    |   9.9 |  3.74
Output  | 12.146     | 12.518     | 18.043     |  40.3 | 58.48
Modify  | 0.06781    | 5.5927     | 5.9652     |  60.3 | 26.13
Other   |            | 0.008622   |            |       |  0.04

Nlocal:    62.5 ave 67 max 58 min
Histogram: 1 3 1 2 3 0 0 1 3 2
Nghost:    1847.81 ave 1861 max 1836 min
Histogram: 1 0 3 3 2 3 1 1 1 1
Neighs:    0 ave 0 max 0 min
Histogram: 16 0 0 0 0 0 0 0 0 0
FullNghs:  18732.5 ave 20221 max 17270 min
Histogram: 2 2 1 2 2 1 0 1 3 2

Total # of neighbors = 299720
Ave neighs/atom = 299.72
Neighbor list builds = 1000
Dangerous builds not checked
Setting up Verlet run ...
  Unit style    : real
  Current step  : 5000
  Time step     : 1
Per MPI rank memory allocation (min/avg/max) = 4.576 | 4.578 | 4.58 Mbytes
Step Temp E_pair E_mol TotEng Press Volume Lx Ly Lz S/CPU 
    5000    297.66386   -10457.849            0   -9571.4568   -10838.673    786.94705    9.2324119    9.2324119    9.2324119            0 
    5100    308.53294   -10489.674            0   -9570.9152   -14196.907     787.3553    9.2340081    9.2340081    9.2340081    43.913524 
    5200     314.4297   -10507.488            0   -9571.1705    -4445.335    787.41856    9.2342554    9.2342554    9.2342554    51.147025 
    5300    313.49386    -10505.94            0   -9572.4087    6273.2088    787.11592    9.2330722    9.2330722    9.2330722    59.828873 
    5400    313.91403   -10510.147            0   -9575.3644    11269.521    786.87442    9.2321278    9.2321278    9.2321278    43.546739 
    5500     306.4234   -10492.311            0   -9579.8343    6938.2492    787.06963    9.2328912    9.2328912    9.2328912    39.864151 
    5600    306.39877   -10499.853            0   -9587.4501    3604.3516     787.2166    9.2334659    9.2334659    9.2334659     55.37238 
    5700    301.49813   -10493.622            0   -9595.8117   -3762.7154    787.31605    9.2338547    9.2338547    9.2338547    59.131755 
    5800    308.17514   -10525.492            0   -9607.7994   -6203.8045    787.52328    9.2346648    9.2346648    9.2346648    39.275861 
    5900    291.40795   -10485.275            0   -9617.5123    2001.0635    787.86084     9.235984     9.235984     9.235984    53.324914 
    6000    293.56942   -10502.477            0    -9628.277   -7348.9281    788.31054    9.2377409    9.2377409    9.2377409    56.296292 
Loop time of 20.4035 on 16 procs for 1000 steps with 1000 atoms

Performance: 4.235 ns/day, 5.668 hours/ns, 49.011 timesteps/s
94.4% CPU use with 16 MPI tasks x no OpenMP threads

MPI task timing breakdown:
Section |  min time  |  avg time  |  max time  |%varavg| %total
---------------------------------------------------------------
Pair    | 1.7125     | 1.797      | 1.8484     |   2.9 |  8.81
Neigh   | 0.6827     | 0.71057    | 0.73084    |   1.5 |  3.48
Comm    | 0.716      | 0.78837    | 0.87296    |   5.2 |  3.86
Output  | 11.835     | 12.163     | 17.021     |  36.0 | 59.61
Modify  | 0.078361   | 4.9357     | 5.2694     |  56.5 | 24.19
Other   |            | 0.008691   |            |       |  0.04

Nlocal:    62.5 ave 66 max 59 min
Histogram: 1 1 2 0 5 2 0 3 1 1
Nghost:    1851.38 ave 1873 max 1833 min
Histogram: 2 2 1 3 0 1 2 3 1 1
Neighs:    0 ave 0 max 0 min
Histogram: 16 0 0 0 0 0 0 0 0 0
FullNghs:  18743.5 ave 19824 max 17526 min
Histogram: 1 1 0 3 3 1 3 2 1 1

Total # of neighbors = 299896
Ave neighs/atom = 299.896
Neighbor list builds = 1000
Dangerous builds not checked
Setting up Verlet run ...
  Unit style    : real
  Current step  : 6000
  Time step     : 1
Per MPI rank memory allocation (min/avg/max) = 4.576 | 4.578 | 4.58 Mbytes
Step Temp E_pair E_mol TotEng Press Volume Lx Ly Lz S/CPU 
    6000    293.56942   -10502.477            0    -9628.277   -7348.9281    788.31054    9.2377409    9.2377409    9.2377409            0 
    6100     298.3488   -10526.307            0   -9637.8747    13395.918    788.72379    9.2393548    9.2393548    9.2393548    36.996681 
    6200    293.46001   -10518.303            0    -9644.429    1370.8764    789.50736    9.2424135    9.2424135    9.2424135    54.107272 
    6300    289.62827   -10510.361            0   -9647.8979   -7202.1752    790.59764     9.246666     9.246666     9.246666    41.919374 
    6400    281.56153   -10486.601            0   -9648.1584   -9651.4731    791.67711    9.2508725    9.2508725    9.2508725    46.759595 
    6500    298.96184   -10539.181            0   -9648.9239   -15080.687    792.02382    9.2522228    9.2522228    9.2522228    34.191751 
    6600    281.44131   -10484.059            0   -9645.9745   -5697.5294      792.003    9.2521417    9.2521417    9.2521417    41.424473 
    6700    302.60224   -10544.007            0   -9642.9095    6521.3272    791.60824    9.2506043    9.2506043    9.2506043     50.59319 
    6800    294.13689   -10513.288            0   -9637.3983   -1080.6581    791.01906    9.2483087    9.2483087    9.2483087     41.89718 
    6900    288.45135   -10488.707            0   -9629.7478    3320.0811    790.44564    9.2460734    9.2460734    9.2460734    39.093242 
    7000    304.06628   -10529.709            0   -9624.2513    5534.3075     789.8231    9.2436454    9.2436454    9.2436454    46.950739 
Loop time of 23.4652 on 16 procs for 1000 steps with 1000 atoms

Performance: 3.682 ns/day, 6.518 hours/ns, 42.616 timesteps/s
94.3% CPU use with 16 MPI tasks x no OpenMP threads

MPI task timing breakdown:
Section |  min time  |  avg time  |  max time  |%varavg| %total
---------------------------------------------------------------
Pair    | 1.5833     | 1.7252     | 1.878      |   5.3 |  7.35
Neigh   | 0.65561    | 0.69024    | 0.72501    |   2.2 |  2.94
Comm    | 0.60117    | 0.78228    | 0.94369    |   9.4 |  3.33
Output  | 14.098     | 14.481     | 20.181     |  38.7 | 61.71
Modify  | 0.080227   | 5.7777     | 6.1612     |  61.2 | 24.62
Other   |            | 0.008553   |            |       |  0.04

Nlocal:    62.5 ave 68 max 56 min
Histogram: 2 0 0 2 2 6 1 0 0 3
Nghost:    1856.12 ave 1881 max 1836 min
Histogram: 1 2 4 0 4 0 1 0 2 2
Neighs:    0 ave 0 max 0 min
Histogram: 16 0 0 0 0 0 0 0 0 0
FullNghs:  18688.5 ave 20495 max 16960 min
Histogram: 2 0 1 3 0 6 1 1 0 2

Total # of neighbors = 299016
Ave neighs/atom = 299.016
Neighbor list builds = 1000
Dangerous builds not checked
Setting up Verlet run ...
  Unit style    : real
  Current step  : 7000
  Time step     : 1
Per MPI rank memory allocation (min/avg/max) = 4.576 | 4.578 | 4.58 Mbytes
Step Temp E_pair E_mol TotEng Press Volume Lx Ly Lz S/CPU 
    7000    304.06628   -10529.709            0   -9624.2513    5534.3075     789.8231    9.2436454    9.2436454    9.2436454            0 
    7100    293.34932   -10490.423            0   -9616.8789    10357.728    789.40695    9.2420217    9.2420217    9.2420217    46.059939 
    7200    290.60856   -10476.239            0   -9610.8561   -2186.0069    789.19961    9.2412124    9.2412124    9.2412124    49.521021 
    7300     302.1152   -10506.075            0   -9606.4276    -10758.02    788.69024    9.2392238    9.2392238    9.2392238    45.502042 
    7400    298.22287   -10490.363            0    -9602.306   -7234.2146    787.31721    9.2338592    9.2338592    9.2338592    39.695737 
    7500    304.28024   -10506.968            0   -9600.8734    3578.9094    785.48846    9.2267043    9.2267043    9.2267043      38.4696 
    7600    306.16774   -10509.771            0   -9598.0553     6472.575    784.04046    9.2210312    9.2210312    9.2210312    55.345293 
    7700    298.77408   -10485.599            0   -9595.9005    1915.5728    782.80928    9.2162021    9.2162021    9.2162021     37.17035 
    7800     293.1187   -10466.522            0   -9593.6646   -334.24957    781.68889    9.2118031    9.2118031    9.2118031    54.843496 
    7900    297.43787   -10477.501            0   -9591.7821    5402.8441    780.70321    9.2079295    9.2079295    9.2079295    53.276991 
    8000    304.84848   -10500.065            0   -9592.2786    12374.947    780.01325    9.2052162    9.2052162    9.2052162    34.845166 
Loop time of 22.5742 on 16 procs for 1000 steps with 1000 atoms

Performance: 3.827 ns/day, 6.271 hours/ns, 44.298 timesteps/s
94.4% CPU use with 16 MPI tasks x no OpenMP threads

MPI task timing breakdown:
Section |  min time  |  avg time  |  max time  |%varavg| %total
---------------------------------------------------------------
Pair    | 1.5738     | 1.7756     | 1.9166     |   6.6 |  7.87
Neigh   | 0.65078    | 0.7018     | 0.73296    |   2.6 |  3.11
Comm    | 0.63236    | 0.80928    | 1.0629     |  11.9 |  3.58
Output  | 12.721     | 13.128     | 19.185     |  43.2 | 58.16
Modify  | 0.099627   | 6.1506     | 6.5657     |  63.0 | 27.25
Other   |            | 0.008734   |            |       |  0.04

Nlocal:    62.5 ave 71 max 60 min
Histogram: 7 4 2 0 2 0 0 0 0 1
Nghost:    1861.12 ave 1882 max 1847 min
Histogram: 2 3 2 2 1 0 4 1 0 1
Neighs:    0 ave 0 max 0 min
Histogram: 16 0 0 0 0 0 0 0 0 0
FullNghs:  18936.2 ave 21469 max 18189 min
Histogram: 5 5 2 1 2 0 0 0 0 1

Total # of neighbors = 302980
Ave neighs/atom = 302.98
Neighbor list builds = 1000
Dangerous builds not checked
Setting up Verlet run ...
  Unit style    : real
  Current step  : 8000
  Time step     : 1
Per MPI rank memory allocation (min/avg/max) = 4.576 | 4.578 | 4.58 Mbytes
Step Temp E_pair E_mol TotEng Press Volume Lx Ly Lz S/CPU 
    8000    304.84848   -10500.065            0   -9592.2786    12374.947    780.01325    9.2052162    9.2052162    9.2052162            0 
    8100    308.76582   -10511.712            0   -9592.2597     13596.42    780.15183    9.2057613    9.2057613    9.2057613    49.563182 
    8200     298.7457   -10481.765            0   -9592.1517   -6955.3586    781.14687    9.2096735    9.2096735    9.2096735    52.672806 
    8300    293.39986   -10468.404            0   -9594.7096    7755.0189     782.3761    9.2145018    9.2145018    9.2145018    44.878512 
    8400    300.57329   -10490.556            0   -9595.5004   -10310.762    783.91833    9.2205524    9.2205524    9.2205524    43.956626 
    8500    303.69641   -10502.588            0   -9598.2319   -3529.8999    785.12106    9.2252655    9.2252655    9.2252655    37.577953 
    8600     292.5622   -10470.669            0    -9599.469    6206.7676    786.13159    9.2292218    9.2292218    9.2292218    48.959743 
    8700    298.78147   -10491.179            0   -9601.4591   -19785.586    787.04795    9.2328064    9.2328064    9.2328064    52.295523 
    8800    298.77639    -10492.26            0   -9602.5548   -7393.8641    787.16696    9.2332718    9.2332718    9.2332718    36.128648 
    8900    302.32634   -10505.921            0   -9605.6452    1267.3364    786.87046    9.2321124    9.2321124    9.2321124    49.327705 
    9000    304.13359   -10514.512            0   -9608.8537    894.30382    786.65432     9.231267     9.231267     9.231267    41.716716 
Loop time of 22.2275 on 16 procs for 1000 steps with 1000 atoms

Performance: 3.887 ns/day, 6.174 hours/ns, 44.989 timesteps/s
94.4% CPU use with 16 MPI tasks x no OpenMP threads

MPI task timing breakdown:
Section |  min time  |  avg time  |  max time  |%varavg| %total
---------------------------------------------------------------
Pair    | 1.6394     | 1.7633     | 1.9771     |   6.9 |  7.93
Neigh   | 0.65567    | 0.6979     | 0.74617    |   3.3 |  3.14
Comm    | 0.56952    | 0.82607    | 0.98853    |  12.6 |  3.72
Output  | 13.12      | 13.483     | 18.856     |  37.8 | 60.66
Modify  | 0.073453   | 5.4482     | 5.8147     |  59.5 | 24.51
Other   |            | 0.008614   |            |       |  0.04

Nlocal:    62.5 ave 69 max 58 min
Histogram: 3 3 1 0 5 0 0 2 1 1
Nghost:    1858.75 ave 1877 max 1843 min
Histogram: 2 0 3 2 1 2 4 1 0 1
Neighs:    0 ave 0 max 0 min
Histogram: 16 0 0 0 0 0 0 0 0 0
FullNghs:  18748.2 ave 20672 max 17449 min
Histogram: 3 3 1 0 4 1 0 2 1 1

Total # of neighbors = 299972
Ave neighs/atom = 299.972
Neighbor list builds = 1000
Dangerous builds not checked
Setting up Verlet run ...
  Unit style    : real
  Current step  : 9000
  Time step     : 1
Per MPI rank memory allocation (min/avg/max) = 4.576 | 4.578 | 4.58 Mbytes
Step Temp E_pair E_mol TotEng Press Volume Lx Ly Lz S/CPU 
    9000    304.13359   -10514.512            0   -9608.8537    894.30382    786.65432     9.231267     9.231267     9.231267            0 
    9100    301.48674   -10509.553            0   -9611.7769    10988.752    786.15787    9.2293246    9.2293246    9.2293246    46.006065 
    9200    300.66677    -10511.32            0   -9615.9862    4965.7909    785.49733     9.226739     9.226739     9.226739    48.803939 
    9300    285.98307   -10473.431            0   -9621.8228   -899.96572    784.81965    9.2240848    9.2240848    9.2240848    45.501429 
    9400    293.23633    -10501.11            0   -9627.9018   -17935.764    784.33045    9.2221679    9.2221679    9.2221679     52.36274 
    9500    301.73621   -10532.474            0   -9633.9551    6563.9407    783.44417     9.218693     9.218693     9.218693    51.847003 
    9600     293.3989   -10513.331            0   -9639.6393    2259.8649    782.51176    9.2150343    9.2150343    9.2150343    41.164088 
    9700    293.83082   -10519.227            0   -9644.2493    7388.1271     781.7414    9.2120094    9.2120094    9.2120094    58.941521 
    9800    307.60195   -10566.625            0   -9650.6388    16477.579    781.43975    9.2108243    9.2108243    9.2108243    50.052815 
    9900    297.15917   -10539.324            0   -9654.4344    5378.6408    781.70423    9.2118634    9.2118634    9.2118634    37.964139 
   10000    298.09711   -10544.494            0    -9656.812    8568.4925     782.3298      9.21432      9.21432      9.21432    49.383942 
Loop time of 21.0417 on 16 procs for 1000 steps with 1000 atoms

Performance: 4.106 ns/day, 5.845 hours/ns, 47.525 timesteps/s
94.4% CPU use with 16 MPI tasks x no OpenMP threads

MPI task timing breakdown:
Section |  min time  |  avg time  |  max time  |%varavg| %total
---------------------------------------------------------------
Pair    | 1.6574     | 1.7631     | 1.9196     |   5.2 |  8.38
Neigh   | 0.6698     | 0.69992    | 0.74126    |   2.5 |  3.33
Comm    | 0.6516     | 0.83935    | 0.97457    |   9.5 |  3.99
Output  | 12.083     | 12.436     | 17.67      |  38.3 | 59.10
Modify  | 0.0593     | 5.2952     | 5.6479     |  58.7 | 25.17
Other   |            | 0.008623   |            |       |  0.04

Nlocal:    62.5 ave 66 max 59 min
Histogram: 1 3 3 0 0 3 0 2 3 1
Nghost:    1863.75 ave 1873 max 1856 min
Histogram: 1 4 2 0 2 3 0 0 3 1
Neighs:    0 ave 0 max 0 min
Histogram: 16 0 0 0 0 0 0 0 0 0
FullNghs:  18879.8 ave 19867 max 17769 min
Histogram: 1 3 1 2 0 2 1 2 1 3

Total # of neighbors = 302076
Ave neighs/atom = 302.076
Neighbor list builds = 1000
Dangerous builds not checked
Setting up Verlet run ...
  Unit style    : real
  Current step  : 10000
  Time step     : 1
Per MPI rank memory allocation (min/avg/max) = 4.576 | 4.578 | 4.58 Mbytes
Step Temp E_pair E_mol TotEng Press Volume Lx Ly Lz S/CPU 
   10000    298.09711   -10544.494            0    -9656.812    8568.4925     782.3298      9.21432      9.21432      9.21432            0 
   10100    291.00854   -10524.745            0   -9658.1714    5712.3539     783.4981    9.2189045    9.2189045    9.2189045    41.500904 
   10200    287.43766   -10512.802            0   -9656.8612    1090.8048    785.31929    9.2260419    9.2260419    9.2260419    47.687191 
   10300    297.93062   -10542.956            0   -9655.7694     3586.481    787.25672    9.2336227    9.2336227    9.2336227     51.53485 
   10400    296.30008   -10533.998            0   -9651.6674    96.789876     789.1505    9.2410208    9.2410208    9.2410208    44.683064 
   10500    296.12011   -10527.102            0    -9645.307   -12535.137    791.16989    9.2488964    9.2488964    9.2488964    55.583918 
   10600    296.14035   -10519.985            0   -9638.1297   -18493.404    792.79619    9.2552293    9.2552293    9.2552293    59.386804 
   10700     290.3624   -10493.189            0   -9628.5399   -12860.874    793.19102    9.2567655    9.2567655    9.2567655    40.102539 
   10800    284.16048   -10462.102            0   -9615.9202   -15877.058    792.38728    9.2536379    9.2536379    9.2536379    42.141919 
   10900    302.59295   -10506.429            0   -9605.3584   -17510.622    790.37274    9.2457891    9.2457891    9.2457891    44.518794 
   11000    299.84933   -10485.207            0   -9592.3074   -208.33372    787.28518     9.233734     9.233734     9.233734    51.415196 
Loop time of 21.2257 on 16 procs for 1000 steps with 1000 atoms

Performance: 4.071 ns/day, 5.896 hours/ns, 47.113 timesteps/s
94.4% CPU use with 16 MPI tasks x no OpenMP threads

MPI task timing breakdown:
Section |  min time  |  avg time  |  max time  |%varavg| %total
---------------------------------------------------------------
Pair    | 1.6371     | 1.7192     | 1.8151     |   3.6 |  8.10
Neigh   | 0.66182    | 0.69018    | 0.71876    |   1.9 |  3.25
Comm    | 0.70838    | 0.81227    | 0.92384    |   6.4 |  3.83
Output  | 11.82      | 12.207     | 17.941     |  42.4 | 57.51
Modify  | 0.0533     | 5.7887     | 6.1878     |  61.6 | 27.27
Other   |            | 0.00856    |            |       |  0.04

Nlocal:    62.5 ave 69 max 54 min
Histogram: 1 2 0 0 1 3 3 3 2 1
Nghost:    1846.06 ave 1866 max 1830 min
Histogram: 3 0 1 3 4 0 2 1 1 1
Neighs:    0 ave 0 max 0 min
Histogram: 16 0 0 0 0 0 0 0 0 0
FullNghs:  18738.2 ave 20706 max 16286 min
Histogram: 3 0 0 0 2 3 3 3 1 1

Total # of neighbors = 299812
Ave neighs/atom = 299.812
Neighbor list builds = 1000
Dangerous builds not checked
Setting up Verlet run ...
  Unit style    : real
  Current step  : 11000
  Time step     : 1
Per MPI rank memory allocation (min/avg/max) = 4.576 | 4.578 | 4.58 Mbytes
Step Temp E_pair E_mol TotEng Press Volume Lx Ly Lz S/CPU 
   11000    299.84933   -10485.207            0   -9592.3074   -208.33372    787.28518     9.233734     9.233734     9.233734            0 
   11100    309.07278   -10504.724            0   -9584.3585    12153.168    783.51227    9.2189601    9.2189601    9.2189601    47.991096 
   11200    316.69075   -10522.304            0   -9579.2527    4104.1627    779.82672    9.2044824    9.2044824    9.2044824    37.160275 
   11300    309.72835   -10496.563            0   -9574.2446    11752.494    776.87155    9.1928408    9.1928408    9.1928408    50.560632 
   11400    318.72282   -10521.975            0    -9572.873    16640.597    775.16907    9.1861207    9.1861207    9.1861207    53.322624 
   11500     302.4878   -10472.806            0   -9572.0485    15899.197    774.88583    9.1850017    9.1850017    9.1850017     38.64159 
   11600    306.13307   -10485.942            0   -9574.3296    15293.016    775.86394    9.1888647    9.1888647    9.1888647    52.349932 
   11700    297.38817   -10462.416            0   -9576.8443    8647.1114    777.98155     9.197217     9.197217     9.197217    39.220529 
   11800    314.13846    -10516.62            0   -9581.1694    9003.8308    780.74017    9.2080749    9.2080749    9.2080749    43.982742 
   11900    300.90797   -10481.596            0   -9585.5431   -4886.5638    784.06683    9.2211346    9.2211346    9.2211346    54.780304 
   12000    291.03381   -10455.797            0   -9589.1481    -3683.209    787.62559    9.2350646    9.2350646    9.2350646    48.024032 
Loop time of 21.8572 on 16 procs for 1000 steps with 1000 atoms

Performance: 3.953 ns/day, 6.071 hours/ns, 45.752 timesteps/s
94.4% CPU use with 16 MPI tasks x no OpenMP threads

MPI task timing breakdown:
Section |  min time  |  avg time  |  max time  |%varavg| %total
---------------------------------------------------------------
Pair    | 1.6218     | 1.7866     | 1.8782     |   4.5 |  8.17
Neigh   | 0.66197    | 0.70037    | 0.71993    |   1.8 |  3.20
Comm    | 0.69248    | 0.79829    | 1.0023     |   8.1 |  3.65
Output  | 12.319     | 12.71      | 18.51      |  42.0 | 58.15
Modify  | 0.062558   | 5.8531     | 6.2439     |  61.8 | 26.78
Other   |            | 0.008681   |            |       |  0.04

Nlocal:    62.5 ave 68 max 56 min
Histogram: 1 2 0 0 4 2 3 1 0 3
Nghost:    1839.38 ave 1862 max 1816 min
Histogram: 1 1 3 1 3 1 2 1 0 3
Neighs:    0 ave 0 max 0 min
Histogram: 16 0 0 0 0 0 0 0 0 0
FullNghs:  18748.4 ave 20404 max 16510 min
Histogram: 1 2 0 0 3 2 2 3 0 3

Total # of neighbors = 299974
Ave neighs/atom = 299.974
Neighbor list builds = 1000
Dangerous builds not checked
Setting up Verlet run ...
  Unit style    : real
  Current step  : 12000
  Time step     : 1
Per MPI rank memory allocation (min/avg/max) = 4.576 | 4.578 | 4.58 Mbytes
Step Temp E_pair E_mol TotEng Press Volume Lx Ly Lz S/CPU 
   12000    291.03381   -10455.797            0   -9589.1481    -3683.209    787.62559    9.2350646    9.2350646    9.2350646            0 
   12100    304.89175   -10502.504            0   -9594.5884    -5741.888    790.71069    9.2471067    9.2471067    9.2471067    41.080244 
   12200    301.11217   -10497.917            0   -9601.2565    14036.239     793.2155    9.2568607    9.2568607    9.2568607    46.514214 
   12300     303.5597   -10512.638            0   -9608.6889   -15700.959    795.33325    9.2650915    9.2650915    9.2650915    54.997201 
   12400    306.17161   -10527.964            0   -9616.2377   -25460.244    796.26036    9.2686902    9.2686902    9.2686902    44.696957 
   12500    302.03832   -10524.468            0   -9625.0494   -4214.3746    795.73408    9.2666477    9.2666477    9.2666477    52.620826 
   12600    287.39078   -10491.408            0   -9635.6075   -4813.1866    793.92476     9.259619     9.259619     9.259619    53.205509 
   12700    296.61631   -10530.912            0   -9647.6389    -11076.63    791.52185    9.2502677    9.2502677    9.2502677    39.704667 
   12800    296.38922   -10543.778            0   -9661.1811   -6246.6145    789.09417    9.2408009    9.2408009    9.2408009    50.877802 
   12900    288.43254   -10533.423            0   -9674.5197   -5394.8023    786.58013    9.2309768    9.2309768    9.2309768    50.470714 
   13000    291.14877   -10551.902            0   -9684.9111   -3855.4461     783.8293    9.2202033    9.2202033    9.2202033    44.425045 
Loop time of 21.136 on 16 procs for 1000 steps with 1000 atoms

Performance: 4.088 ns/day, 5.871 hours/ns, 47.313 timesteps/s
94.4% CPU use with 16 MPI tasks x no OpenMP threads

MPI task timing breakdown:
Section |  min time  |  avg time  |  max time  |%varavg| %total
---------------------------------------------------------------
Pair    | 1.6416     | 1.709      | 1.823      |   3.8 |  8.09
Neigh   | 0.66219    | 0.69031    | 0.71675    |   2.0 |  3.27
Comm    | 0.64254    | 0.78219    | 0.87757    |   7.1 |  3.70
Output  | 12.039     | 12.408     | 17.895     |  40.2 | 58.71
Modify  | 0.049663   | 5.5379     | 5.9077     |  60.2 | 26.20
Other   |            | 0.008538   |            |       |  0.04

Nlocal:    62.5 ave 70 max 53 min
Histogram: 1 0 1 0 5 4 0 2 2 1
Nghost:    1857.25 ave 1870 max 1839 min
Histogram: 1 2 1 0 1 1 5 1 2 2
Neighs:    0 ave 0 max 0 min
Histogram: 16 0 0 0 0 0 0 0 0 0
FullNghs:  18830.4 ave 21514 max 15715 min
Histogram: 1 0 1 1 4 3 2 1 2 1

Total # of neighbors = 301286
Ave neighs/atom = 301.286
Neighbor list builds = 1000
Dangerous builds not checked
Setting up Verlet run ...
  Unit style    : real
  Current step  : 13000
  Time step     : 1
Per MPI rank memory allocation (min/avg/max) = 4.576 | 4.578 | 4.58 Mbytes
Step Temp E_pair E_mol TotEng Press Volume Lx Ly Lz S/CPU 
   13000    291.14877   -10551.902            0   -9684.9111   -3855.4461     783.8293    9.2202033    9.2202033    9.2202033            0 
   13100      287.411   -10548.861            0   -9692.9996    2271.2042    780.81045    9.2083512    9.2083512    9.2083512    50.472352 
   13200    294.97748   -10575.671            0   -9697.2783   -6287.7805    777.83793     9.196651     9.196651     9.196651    51.052739 
   13300    282.49583   -10538.239            0   -9697.0147    10906.138    774.90276    9.1850686    9.1850686    9.1850686    41.983316 
   13400    286.55432   -10549.417            0   -9696.1073    13594.333    772.67665    9.1762646    9.1762646    9.1762646    58.778017 
   13500     285.6405   -10543.453            0    -9692.864    16598.689    771.41969    9.1712861    9.1712861    9.1712861    52.809255 
   13600    285.75998   -10539.197            0   -9688.2528    22188.867    771.27077    9.1706959    9.1706959    9.1706959    45.104897 
   13700    292.60591   -10555.137            0   -9683.8063    17010.589    772.59789    9.1759528    9.1759528    9.1759528    51.834587 
   13800     296.7046   -10563.712            0    -9680.176    18761.107    775.29936    9.1866353    9.1866353    9.1866353    51.383692 
   13900    289.54063   -10539.246            0   -9677.0436    5788.9891    779.07462    9.2015224    9.2015224    9.2015224    40.939083 
   14000    295.16267   -10551.981            0   -9673.0373    222.29326    783.10839    9.2173757    9.2173757    9.2173757    40.630318 
Loop time of 20.9132 on 16 procs for 1000 steps with 1000 atoms

Performance: 4.131 ns/day, 5.809 hours/ns, 47.817 timesteps/s
94.4% CPU use with 16 MPI tasks x no OpenMP threads

MPI task timing breakdown:
Section |  min time  |  avg time  |  max time  |%varavg| %total
---------------------------------------------------------------
Pair    | 1.6899     | 1.806      | 1.9346     |   4.6 |  8.64
Neigh   | 0.66878    | 0.70625    | 0.76133    |   2.5 |  3.38
Comm    | 0.62422    | 0.79759    | 0.95185    |   9.0 |  3.81
Output  | 11.921     | 12.274     | 17.524     |  38.7 | 58.69
Modify  | 0.069695   | 5.3206     | 5.6743     |  58.8 | 25.44
Other   |            | 0.008694   |            |       |  0.04

Nlocal:    62.5 ave 68 max 55 min
Histogram: 1 0 0 4 1 0 6 3 0 1
Nghost:    1849.69 ave 1875 max 1826 min
Histogram: 2 1 0 3 2 4 1 1 0 2
Neighs:    0 ave 0 max 0 min
Histogram: 16 0 0 0 0 0 0 0 0 0
FullNghs:  18841 ave 20682 max 16423 min
Histogram: 1 0 0 5 0 1 1 7 0 1

Total # of neighbors = 301456
Ave neighs/atom = 301.456
Neighbor list builds = 1000
Dangerous builds not checked
Setting up Verlet run ...
  Unit style    : real
  Current step  : 14000
  Time step     : 1
Per MPI rank memory allocation (min/avg/max) = 4.576 | 4.578 | 4.58 Mbytes
Step Temp E_pair E_mol TotEng Press Volume Lx Ly Lz S/CPU 
   14000    295.16267   -10551.981            0   -9673.0373    222.29326    783.10839    9.2173757    9.2173757    9.2173757            0 
   14100    300.68757   -10565.622            0   -9670.2259   -8884.8669    786.85581     9.232055     9.232055     9.232055     42.70456 
   14200     295.8716   -10545.442            0   -9664.3873    -22234.38    789.69652    9.2431516    9.2431516    9.2431516    35.906734 
   14300     300.1026   -10553.066            0   -9659.4117   -10897.221    790.97858    9.2481509    9.2481509    9.2481509    37.047856 
   14400    288.32663   -10509.858            0   -9651.2702   -13426.279    791.22328    9.2491045    9.2491045    9.2491045    45.041801 
   14500    290.01351   -10506.899            0   -9643.2878   -19118.588     790.5808    9.2466003    9.2466003    9.2466003    56.085406 
   14600    283.92792   -10478.444            0   -9632.9552   -6354.4638    788.80288    9.2396637    9.2396637    9.2396637    41.867965 
   14700    294.24273   -10499.497            0   -9623.2927   -14368.172    786.39228    9.2302419    9.2302419    9.2302419     46.44364 
   14800    289.62014   -10474.145            0   -9611.7053   -3596.3102    783.29405    9.2181041    9.2181041    9.2181041    43.673118 
   14900    296.82252   -10485.878            0   -9601.9917    5652.2503    780.10502    9.2055772    9.2055772    9.2055772    54.843221 
   15000    301.49536   -10491.282            0     -9593.48    11063.265    777.23254    9.1942645    9.1942645    9.1942645    54.232694 
Loop time of 22.3277 on 16 procs for 1000 steps with 1000 atoms

Performance: 3.870 ns/day, 6.202 hours/ns, 44.787 timesteps/s
94.3% CPU use with 16 MPI tasks x no OpenMP threads

MPI task timing breakdown:
Section |  min time  |  avg time  |  max time  |%varavg| %total
---------------------------------------------------------------
Pair    | 1.6955     | 1.7703     | 1.8712     |   3.2 |  7.93
Neigh   | 0.68117    | 0.70358    | 0.74696    |   2.3 |  3.15
Comm    | 0.66021    | 0.78271    | 0.88184    |   6.7 |  3.51
Output  | 12.858     | 13.245     | 19.003     |  40.9 | 59.32
Modify  | 0.055946   | 5.8175     | 6.2158     |  61.7 | 26.05
Other   |            | 0.008645   |            |       |  0.04

Nlocal:    62.5 ave 68 max 55 min
Histogram: 1 1 0 3 0 2 4 2 2 1
Nghost:    1874.56 ave 1897 max 1845 min
Histogram: 1 1 1 3 2 0 3 0 1 4
Neighs:    0 ave 0 max 0 min
Histogram: 16 0 0 0 0 0 0 0 0 0
FullNghs:  18978.5 ave 20845 max 16688 min
Histogram: 1 1 1 2 1 2 3 3 1 1

Total # of neighbors = 303656
Ave neighs/atom = 303.656
Neighbor list builds = 1000
Dangerous builds not checked
Setting up Verlet run ...
  Unit style    : real
  Current step  : 15000
  Time step     : 1
Per MPI rank memory allocation (min/avg/max) = 4.576 | 4.578 | 4.58 Mbytes
Step Temp E_pair E_mol TotEng Press Volume Lx Ly Lz S/CPU 
   15000    301.49536   -10491.282            0     -9593.48    11063.265    777.23254    9.1942645    9.1942645    9.1942645            0 
   15100    303.66436   -10490.763            0   -9586.5019    10275.667    775.02622    9.1855563    9.1855563    9.1855563    45.294737 
   15200    319.77123   -10534.813            0   -9582.5886    16105.119    773.65941    9.1801534    9.1801534    9.1801534    57.739064 
   15300     312.9188   -10509.971            0   -9578.1524    16628.473    773.27851    9.1786466    9.1786466    9.1786466    43.882226 
   15400    304.18251   -10482.229            0   -9576.4252     12547.27    774.04198    9.1816663    9.1816663    9.1816663     33.91268 
   15500    302.10681   -10477.048            0   -9577.4251    18604.558    775.67066    9.1881016    9.1881016    9.1881016     58.28219 
   15600    303.51114   -10483.413            0   -9579.6084    321.26859    777.98011    9.1972113    9.1972113    9.1972113     53.25164 
   15700    290.81932   -10448.149            0   -9582.1387    9168.7141    780.56455    9.2073844    9.2073844    9.2073844    49.881905 
   15800    302.76342   -10487.992            0   -9586.4144    2956.9985    783.36558    9.2183847    9.2183847    9.2183847    50.991652 
   15900    297.56301   -10475.225            0   -9589.1329    -6215.888    785.97447    9.2286069    9.2286069    9.2286069    48.077065 
   16000    296.84861   -10477.041            0   -9593.0768   -15142.831    788.11296    9.2369691    9.2369691    9.2369691    43.047597 
Loop time of 21.1298 on 16 procs for 1000 steps with 1000 atoms

Performance: 4.089 ns/day, 5.869 hours/ns, 47.327 timesteps/s
94.4% CPU use with 16 MPI tasks x no OpenMP threads

MPI task timing breakdown:
Section |  min time  |  avg time  |  max time  |%varavg| %total
---------------------------------------------------------------
Pair    | 1.6953     | 1.7919     | 1.8957     |   5.1 |  8.48
Neigh   | 0.67559    | 0.70293    | 0.73166    |   2.2 |  3.33
Comm    | 0.67709    | 0.80631    | 0.92882    |   9.4 |  3.82
Output  | 11.819     | 12.21      | 17.765     |  41.0 | 57.79
Modify  | 0.056193   | 5.6096     | 6.0008     |  60.5 | 26.55
Other   |            | 0.008681   |            |       |  0.04

Nlocal:    62.5 ave 67 max 58 min
Histogram: 1 1 0 3 3 3 2 2 0 1
Nghost:    1847.81 ave 1858 max 1836 min
Histogram: 2 0 2 2 1 1 3 2 0 3
Neighs:    0 ave 0 max 0 min
Histogram: 16 0 0 0 0 0 0 0 0 0
FullNghs:  18725.9 ave 20219 max 17274 min
Histogram: 2 0 1 2 2 4 3 1 0 1

Total # of neighbors = 299614
Ave neighs/atom = 299.614
Neighbor list builds = 1000
Dangerous builds not checked
Setting up Verlet run ...
  Unit style    : real
  Current step  : 16000
  Time step     : 1
Per MPI rank memory allocation (min/avg/max) = 4.576 | 4.578 | 4.58 Mbytes
Step Temp E_pair E_mol TotEng Press Volume Lx Ly Lz S/CPU 
   16000    296.84861   -10477.041            0   -9593.0768   -15142.831    788.11296    9.2369691    9.2369691    9.2369691            0 
   16100    297.53771   -10483.807            0   -9597.7903   -7911.8742    789.58478    9.2427156    9.2427156    9.2427156    49.490924 
   16200    305.24732    -10511.56            0   -9602.5857   -7747.5199    790.27089     9.245392     9.245392     9.245392      37.0314 
   16300    286.17975   -10460.156            0   -9607.9614   -10187.221    790.09175    9.2446933    9.2446933    9.2446933    51.102795 
   16400    289.72637   -10476.892            0   -9614.1359    4758.6202    789.33966     9.241759     9.241759     9.241759    47.092574 
   16500    289.24893   -10479.795            0   -9618.4611    442.83265    788.28431    9.2376385    9.2376385    9.2376385    56.212381 
   16600     291.0504   -10490.451            0   -9623.7527   -7922.1417    786.88479    9.2321684    9.2321684    9.2321684    39.288983 
   16700    292.91781   -10500.847            0   -9628.5877   -10336.872    785.04285    9.2249592    9.2249592    9.2249592    55.814632 
   16800    276.92686   -10455.095            0   -9630.4538    1732.0866    782.67599    9.2156789    9.2156789    9.2156789    57.084051 
   16900    294.21176   -10510.542            0   -9634.4294    4881.6507    780.01922    9.2052397    9.2052397    9.2052397    44.103593 
   17000    298.47156   -10524.667            0   -9635.8699    2363.3561     777.1663    9.1940033    9.1940033    9.1940033    40.550114 
Loop time of 21.4025 on 16 procs for 1000 steps with 1000 atoms

Performance: 4.037 ns/day, 5.945 hours/ns, 46.724 timesteps/s
94.4% CPU use with 16 MPI tasks x no OpenMP threads

MPI task timing breakdown:
Section |  min time  |  avg time  |  max time  |%varavg| %total
---------------------------------------------------------------
Pair    | 1.6991     | 1.7763     | 1.8976     |   4.3 |  8.30
Neigh   | 0.67209    | 0.70691    | 0.73579    |   2.1 |  3.30
Comm    | 0.63406    | 0.78434    | 0.89639    |   8.1 |  3.66
Output  | 12.22      | 12.589     | 18.079     |  39.9 | 58.82
Modify  | 0.046625   | 5.537      | 5.9065     |  60.2 | 25.87
Other   |            | 0.008667   |            |       |  0.04

Nlocal:    62.5 ave 73 max 55 min
Histogram: 2 1 3 2 1 4 1 0 1 1
Nghost:    1879.81 ave 1898 max 1864 min
Histogram: 1 1 2 5 1 1 1 1 1 2
Neighs:    0 ave 0 max 0 min
Histogram: 16 0 0 0 0 0 0 0 0 0
FullNghs:  18985.1 ave 22227 max 16830 min
Histogram: 2 3 2 1 3 2 1 0 1 1

Total # of neighbors = 303762
Ave neighs/atom = 303.762
Neighbor list builds = 1000
Dangerous builds not checked
Setting up Verlet run ...
  Unit style    : real
  Current step  : 17000
  Time step     : 1
Per MPI rank memory allocation (min/avg/max) = 4.576 | 4.578 | 4.58 Mbytes
Step Temp E_pair E_mol TotEng Press Volume Lx Ly Lz S/CPU 
   17000    298.47156   -10524.667            0   -9635.8699    2363.3561     777.1663    9.1940033    9.1940033    9.1940033            0 
   17100    297.46404   -10522.412            0   -9636.6148    4173.6902    774.50367    9.1834915    9.1834915    9.1834915    50.533343 
   17200    295.75123   -10514.913            0   -9634.2164    7061.2602    772.30806    9.1748053    9.1748053    9.1748053    49.965568 
   17300    299.63365   -10523.342            0   -9631.0838    433.76325    770.91747    9.1692953    9.1692953    9.1692953    42.444115 
   17400    303.11309    -10529.76            0   -9627.1413    20660.677    770.39025    9.1672046    9.1672046    9.1672046    42.019685 
   17500    291.57848   -10489.413            0   -9621.1418   -523.41117     770.9882    9.1695758    9.1695758    9.1695758     41.80924 
   17600    297.19923   -10499.661            0   -9614.6522    17548.243    771.80986     9.172832     9.172832     9.172832    42.889341 
   17700    297.38602   -10493.402            0   -9607.8371    13723.115    773.15362    9.1781524    9.1781524    9.1781524    44.734863 
   17800    308.96082   -10522.266            0    -9602.233    11646.167    775.10488    9.1858671    9.1858671    9.1858671    39.942743 
   17900    308.30772   -10511.868            0   -9593.7799   -2748.5634    777.69317    9.1960805    9.1960805    9.1960805    56.436244 
   18000    306.11666   -10497.773            0   -9586.2098   -7239.0695    780.59304    9.2074964    9.2074964    9.2074964    43.540816 
Loop time of 22.2471 on 16 procs for 1000 steps with 1000 atoms

Performance: 3.884 ns/day, 6.180 hours/ns, 44.950 timesteps/s
94.4% CPU use with 16 MPI tasks x no OpenMP threads

MPI task timing breakdown:
Section |  min time  |  avg time  |  max time  |%varavg| %total
---------------------------------------------------------------
Pair    | 1.6838     | 1.8278     | 2.0179     |   5.9 |  8.22
Neigh   | 0.65953    | 0.7111     | 0.75455    |   2.9 |  3.20
Comm    | 0.55888    | 0.79414    | 0.98978    |  11.4 |  3.57
Output  | 12.758     | 13.142     | 18.834     |  40.5 | 59.07
Modify  | 0.073339   | 5.7639     | 6.1467     |  61.2 | 25.91
Other   |            | 0.008718   |            |       |  0.04

Nlocal:    62.5 ave 70 max 56 min
Histogram: 1 1 3 2 0 5 1 2 0 1
Nghost:    1862.44 ave 1879 max 1842 min
Histogram: 1 3 1 1 1 2 1 1 1 4
Neighs:    0 ave 0 max 0 min
Histogram: 16 0 0 0 0 0 0 0 0 0
FullNghs:  18903.6 ave 21437 max 16922 min
Histogram: 1 2 2 2 2 3 2 1 0 1

Total # of neighbors = 302458
Ave neighs/atom = 302.458
Neighbor list builds = 1000
Dangerous builds not checked
Setting up Verlet run ...
  Unit style    : real
  Current step  : 18000
  Time step     : 1
Per MPI rank memory allocation (min/avg/max) = 4.576 | 4.578 | 4.58 Mbytes
Step Temp E_pair E_mol TotEng Press Volume Lx Ly Lz S/CPU 
   18000    306.11666   -10497.773            0   -9586.2098   -7239.0695    780.59304    9.2074964    9.2074964    9.2074964            0 
   18100    300.83659   -10474.758            0   -9578.9178   -7557.4803    783.33193    9.2182527    9.2182527    9.2182527    57.132805 
   18200    307.50323   -10487.603            0   -9571.9107   -10735.768    785.32656    9.2260703    9.2260703    9.2260703    49.809727 
   18300     303.6087   -10469.738            0   -9565.6431   -13924.765    786.40599    9.2302955    9.2302955    9.2302955    37.963802 
   18400    309.27725   -10482.696            0   -9561.7213   -4079.2188    786.71737    9.2315136    9.2315136    9.2315136     45.78201 
   18500    304.39233    -10465.08            0   -9558.6516   -10609.255    786.58152    9.2309822    9.2309822    9.2309822    55.221185 
   18600    301.11576   -10452.376            0   -9555.7048    7186.0865    786.07986    9.2290194    9.2290194    9.2290194     50.03145 
   18700      302.952   -10455.871            0   -9553.7319      8309.13    785.70684    9.2275593    9.2275593    9.2275593    59.878729 
   18800    295.47619   -10430.047            0   -9550.1689    11267.666    785.84365    9.2280949    9.2280949    9.2280949    45.126996 
   18900    310.52022   -10473.954            0    -9549.278    17558.497    786.37088    9.2301581    9.2301581    9.2301581    45.225816 
   19000    304.34497   -10455.261            0   -9548.9736   -7156.1162    787.30649    9.2338173    9.2338173    9.2338173    56.878119 
Loop time of 20.2413 on 16 procs for 1000 steps with 1000 atoms

Performance: 4.269 ns/day, 5.623 hours/ns, 49.404 timesteps/s
94.4% CPU use with 16 MPI tasks x no OpenMP threads

MPI task timing breakdown:
Section |  min time  |  avg time  |  max time  |%varavg| %total
---------------------------------------------------------------
Pair    | 1.6249     | 1.7438     | 1.872      |   4.7 |  8.61
Neigh   | 0.66418    | 0.69482    | 0.7342     |   2.7 |  3.43
Comm    | 0.64414    | 0.81292    | 0.95796    |   9.0 |  4.02
Output  | 11.313     | 11.677     | 16.933     |  39.7 | 57.69
Modify  | 0.047553   | 5.3038     | 5.6699     |  58.9 | 26.20
Other   |            | 0.008604   |            |       |  0.04

Nlocal:    62.5 ave 65 max 58 min
Histogram: 1 0 1 0 3 2 0 4 2 3
Nghost:    1854.62 ave 1874 max 1834 min
Histogram: 1 1 3 2 1 1 1 2 2 2
Neighs:    0 ave 0 max 0 min
Histogram: 16 0 0 0 0 0 0 0 0 0
FullNghs:  18746.9 ave 19650 max 17475 min
Histogram: 1 0 1 3 0 2 3 2 2 2

Total # of neighbors = 299950
Ave neighs/atom = 299.95
Neighbor list builds = 1000
Dangerous builds not checked
Setting up Verlet run ...
  Unit style    : real
  Current step  : 19000
  Time step     : 1
Per MPI rank memory allocation (min/avg/max) = 4.576 | 4.578 | 4.58 Mbytes
Step Temp E_pair E_mol TotEng Press Volume Lx Ly Lz S/CPU 
   19000    304.34497   -10455.261            0   -9548.9736   -7156.1162    787.30649    9.2338173    9.2338173    9.2338173            0 
   19100    301.70265   -10450.418            0   -9551.9989    13112.113    788.43816    9.2382394    9.2382394    9.2382394    47.933166 
   19200    297.34948   -10442.862            0   -9557.4056   -11264.764     789.5569    9.2426068    9.2426068    9.2426068    40.852516 
   19300    298.75106   -10455.254            0   -9565.6239   -10255.072    790.19191    9.2450839    9.2450839    9.2450839    50.757293 
   19400    320.88962   -10535.212            0   -9579.6571     566.5354     790.2904    9.2454681    9.2454681    9.2454681    51.681446 
   19500    297.39075   -10478.274            0   -9592.6951    -14182.14    789.91845    9.2440174    9.2440174    9.2440174    49.992941 
   19600    306.61397   -10520.401            0   -9607.3565   -12055.486    788.58533    9.2388142    9.2388142    9.2388142    49.409275 
   19700    293.24177   -10491.926            0   -9618.7017    835.67885    786.44979    9.2304669    9.2304669    9.2304669    51.943178 
   19800    303.02302   -10530.608            0   -9628.2574   -16477.685    783.74077    9.2198562    9.2198562    9.2198562    40.988406 
   19900    287.24246   -10490.107            0   -9634.7476   -2182.6589     780.2072    9.2059791    9.2059791    9.2059791    62.083143 
   20000    295.54295   -10516.645            0   -9636.5683    17171.254    776.50691    9.1914023    9.1914023    9.1914023    41.792569 
Loop time of 20.8318 on 16 procs for 1000 steps with 1000 atoms

Performance: 4.148 ns/day, 5.787 hours/ns, 48.004 timesteps/s
94.4% CPU use with 16 MPI tasks x no OpenMP threads

MPI task timing breakdown:
Section |  min time  |  avg time  |  max time  |%varavg| %total
---------------------------------------------------------------
Pair    | 1.6291     | 1.7498     | 1.8437     |   5.2 |  8.40
Neigh   | 0.65834    | 0.69798    | 0.74161    |   2.6 |  3.35
Comm    | 0.65575    | 0.77866    | 0.92547    |  10.1 |  3.74
Output  | 11.64      | 12.016     | 17.507     |  40.9 | 57.68
Modify  | 0.089819   | 5.5807     | 5.957      |  60.0 | 26.79
Other   |            | 0.008626   |            |       |  0.04

Nlocal:    62.5 ave 68 max 56 min
Histogram: 1 0 0 3 3 3 0 3 2 1
Nghost:    1877.25 ave 1895 max 1857 min
Histogram: 1 1 0 0 4 4 3 2 0 1
Neighs:    0 ave 0 max 0 min
Histogram: 16 0 0 0 0 0 0 0 0 0
FullNghs:  19016.6 ave 20772 max 16945 min
Histogram: 1 0 0 5 2 2 0 4 1 1

Total # of neighbors = 304266
Ave neighs/atom = 304.266
Neighbor list builds = 1000
Dangerous builds not checked
Setting up Verlet run ...
  Unit style    : real
  Current step  : 20000
  Time step     : 1
Per MPI rank memory allocation (min/avg/max) = 4.576 | 4.578 | 4.58 Mbytes
Step Temp E_pair E_mol TotEng Press Volume Lx Ly Lz S/CPU 
   20000    295.54295   -10516.645            0   -9636.5683    17171.254    776.50691    9.1914023    9.1914023    9.1914023            0 
   20100    288.02224   -10496.003            0   -9638.3215     12034.19    773.57208     9.179808     9.179808     9.179808    52.994671 
   20200     288.4638   -10497.491            0   -9638.4956    11474.341    771.82326    9.1728851    9.1728851    9.1728851    35.476533 
   20300    297.57378   -10524.562            0   -9638.4381    23858.932    771.51194    9.1716516    9.1716516    9.1716516    40.712188 
   20400    300.48077   -10532.812            0    -9638.032    4591.7066    772.63886     9.176115     9.176115     9.176115    53.909439 
   20500    301.12751   -10531.666            0   -9634.9601    20470.831    774.35411    9.1829003    9.1829003    9.1829003    41.637205 
   20600    288.98651   -10492.313            0   -9631.7601     5593.686    776.94951    9.1931483    9.1931483    9.1931483    58.317212 
   20700    296.08486   -10509.434            0   -9627.7441   -19619.963    780.20152    9.2059567    9.2059567    9.2059567    46.826574 
   20800    304.74099   -10529.857            0   -9622.3899    2856.0524    783.14166    9.2175063    9.2175063    9.2175063    45.085829 
   20900    304.73529   -10522.496            0   -9615.0461   -14596.096    785.69471    9.2275118    9.2275118    9.2275118    53.290441 
   21000    298.96587   -10495.949            0   -9605.6794   -3173.2066    787.77142    9.2356346    9.2356346    9.2356346    55.051132 
Loop time of 21.18 on 16 procs for 1000 steps with 1000 atoms

Performance: 4.079 ns/day, 5.883 hours/ns, 47.214 timesteps/s
94.4% CPU use with 16 MPI tasks x no OpenMP threads

MPI task timing breakdown:
Section |  min time  |  avg time  |  max time  |%varavg| %total
---------------------------------------------------------------
Pair    | 1.6905     | 1.8088     | 1.9061     |   4.4 |  8.54
Neigh   | 0.67222    | 0.71077    | 0.73951    |   2.3 |  3.36
Comm    | 0.68964    | 0.81125    | 0.9599     |   8.3 |  3.83
Output  | 12.284     | 12.631     | 17.783     |  37.4 | 59.63
Modify  | 0.057584   | 5.2099     | 5.5573     |  58.3 | 24.60
Other   |            | 0.008712   |            |       |  0.04

Nlocal:    62.5 ave 67 max 58 min
Histogram: 1 2 0 2 3 2 3 1 1 1
Nghost:    1840.44 ave 1855 max 1822 min
Histogram: 1 1 1 3 0 1 3 3 1 2
Neighs:    0 ave 0 max 0 min
Histogram: 16 0 0 0 0 0 0 0 0 0
FullNghs:  18742.9 ave 20282 max 17265 min
Histogram: 2 1 0 2 3 3 3 0 1 1

Total # of neighbors = 299886
Ave neighs/atom = 299.886
Neighbor list builds = 1000
Dangerous builds not checked
Setting up Verlet run ...
  Unit style    : real
  Current step  : 21000
  Time step     : 1
Per MPI rank memory allocation (min/avg/max) = 4.576 | 4.578 | 4.58 Mbytes
Step Temp E_pair E_mol TotEng Press Volume Lx Ly Lz S/CPU 
   21000    298.96587   -10495.949            0   -9605.6794   -3173.2066    787.77142    9.2356346    9.2356346    9.2356346            0 
   21100    295.43056   -10473.983            0   -9594.2414   -19540.941    789.45453    9.2422073    9.2422073    9.2422073    60.545606 
   21200     304.9228   -10489.296            0   -9581.2879   -8792.6083    790.04425    9.2445081    9.2445081    9.2445081    37.665481 
   21300    293.55615   -10443.168            0   -9569.0076    7931.7509     789.6767    9.2430743    9.2430743    9.2430743    44.202243 
   21400    296.10471   -10440.011            0   -9558.2614     8407.577    789.34542    9.2417815    9.2417815    9.2417815    55.382629 
   21500     302.3569   -10450.149            0   -9549.7819   -16693.938     789.0986    9.2408182    9.2408182    9.2408182     41.79878 
   21600    307.94647   -10461.447            0   -9544.4355   -11096.548    788.29763    9.2376905    9.2376905    9.2376905    50.375534 
   21700    308.73232    -10459.58            0   -9540.2278    4564.2856    787.32083    9.2338734    9.2338734    9.2338734    53.861746 
   21800     298.2349   -10427.054            0   -9538.9614   -2975.9838     786.4711    9.2305502    9.2305502    9.2305502    49.436658 
   21900    300.22978   -10431.514            0   -9537.4812   -14011.177    785.71524    9.2275922    9.2275922    9.2275922    44.244678 
   22000    309.51195   -10461.879            0    -9540.205   -8411.3816    784.33775    9.2221965    9.2221965    9.2221965    47.070004 
Loop time of 21.0161 on 16 procs for 1000 steps with 1000 atoms

Performance: 4.111 ns/day, 5.838 hours/ns, 47.583 timesteps/s
94.4% CPU use with 16 MPI tasks x no OpenMP threads

MPI task timing breakdown:
Section |  min time  |  avg time  |  max time  |%varavg| %total
---------------------------------------------------------------
Pair    | 1.6537     | 1.7673     | 1.869      |   4.3 |  8.41
Neigh   | 0.67559    | 0.707      | 0.74717    |   2.2 |  3.36
Comm    | 0.66076    | 0.80277    | 0.94822    |   8.0 |  3.82
Output  | 11.766     | 12.139     | 17.682     |  41.1 | 57.76
Modify  | 0.048106   | 5.5914     | 5.9652     |  60.5 | 26.61
Other   |            | 0.008674   |            |       |  0.04

Nlocal:    62.5 ave 69 max 56 min
Histogram: 1 1 0 3 1 3 6 0 0 1
Nghost:    1857.81 ave 1878 max 1834 min
Histogram: 1 1 0 3 1 3 3 2 1 1
Neighs:    0 ave 0 max 0 min
Histogram: 16 0 0 0 0 0 0 0 0 0
FullNghs:  18808.9 ave 20776 max 16553 min
Histogram: 1 1 0 3 0 4 4 2 0 1

Total # of neighbors = 300942
Ave neighs/atom = 300.942
Neighbor list builds = 1000
Dangerous builds not checked
Setting up Verlet run ...
  Unit style    : real
  Current step  : 22000
  Time step     : 1
Per MPI rank memory allocation (min/avg/max) = 4.576 | 4.578 | 4.58 Mbytes
Step Temp E_pair E_mol TotEng Press Volume Lx Ly Lz S/CPU 
   22000    309.51195   -10461.879            0    -9540.205   -8411.3816    784.33775    9.2221965    9.2221965    9.2221965            0 
   22100    306.01181   -10451.936            0   -9540.6846     4378.983    782.34823    9.2143924    9.2143924    9.2143924    51.517378 
   22200    309.25694   -10463.691            0   -9542.7761   -5586.6947    780.68815    9.2078704    9.2078704    9.2078704    45.289545 
   22300    297.38892   -10431.355            0    -9545.782    1324.5133    779.18111    9.2019416    9.2019416    9.2019416     44.92116 
   22400     306.2563   -10461.843            0   -9549.8645    12765.845    778.14886    9.1978762    9.1978762    9.1978762    55.375033 
   22500    315.12235    -10492.21            0   -9553.8297    1507.7258    777.95284    9.1971038    9.1971038    9.1971038    53.858929 
   22600    304.67089    -10466.71            0   -9559.4523    3807.7504    778.43729    9.1990125    9.1990125    9.1990125    42.602321 
   22700    308.19323   -10485.851            0   -9568.1038    8703.2056    779.68896    9.2039403    9.2039403    9.2039403    46.683357 
   22800    310.04894   -10499.734            0   -9576.4615   -4119.9367    781.58162    9.2113817    9.2113817    9.2113817    51.601044 
   22900    298.91369   -10474.145            0   -9584.0308    4328.3083    783.80743    9.2201176    9.2201176    9.2201176    53.798295 
   23000    301.69083   -10489.126            0   -9590.7427   -12703.002    785.96779    9.2285807    9.2285807    9.2285807    48.029717 
Loop time of 20.406 on 16 procs for 1000 steps with 1000 atoms

Performance: 4.234 ns/day, 5.668 hours/ns, 49.005 timesteps/s
94.4% CPU use with 16 MPI tasks x no OpenMP threads

MPI task timing breakdown:
Section |  min time  |  avg time  |  max time  |%varavg| %total
---------------------------------------------------------------
Pair    | 1.6767     | 1.8097     | 1.9693     |   6.1 |  8.87
Neigh   | 0.65806    | 0.70928    | 0.74781    |   2.9 |  3.48
Comm    | 0.61251    | 0.80457    | 0.988      |  11.6 |  3.94
Output  | 11.077     | 11.451     | 17.004     |  42.4 | 56.12
Modify  | 0.068943   | 5.6227     | 5.9967     |  60.5 | 27.55
Other   |            | 0.008771   |            |       |  0.04

Nlocal:    62.5 ave 70 max 58 min
Histogram: 3 3 2 1 2 2 0 1 0 2
Nghost:    1857.94 ave 1871 max 1845 min
Histogram: 2 1 2 1 2 1 3 2 0 2
Neighs:    0 ave 0 max 0 min
Histogram: 16 0 0 0 0 0 0 0 0 0
FullNghs:  18776.6 ave 21173 max 17242 min
Histogram: 2 2 4 1 2 2 0 1 1 1

Total # of neighbors = 300426
Ave neighs/atom = 300.426
Neighbor list builds = 1000
Dangerous builds not checked
Setting up Verlet run ...
  Unit style    : real
  Current step  : 23000
  Time step     : 1
Per MPI rank memory allocation (min/avg/max) = 4.576 | 4.578 | 4.58 Mbytes
Step Temp E_pair E_mol TotEng Press Volume Lx Ly Lz S/CPU 
   23000    301.69083   -10489.126            0   -9590.7427   -12703.002    785.96779    9.2285807    9.2285807    9.2285807            0 
   23100    289.34883   -10456.438            0   -9594.8063   -5489.2664    787.45538    9.2343993    9.2343993    9.2343993    52.284035 
   23200    285.10012   -10446.411            0    -9597.432   -13561.459    787.84868    9.2359365    9.2359365    9.2359365    37.286654 
   23300    298.90729   -10491.226            0   -9601.1314   -21657.409    787.02573    9.2327196    9.2327196    9.2327196    40.323392 
   23400    292.92284    -10473.77            0   -9601.4959   -25046.316    785.18818    9.2255284    9.2255284    9.2255284    52.703267 
   23500    289.81717   -10463.866            0   -9600.8398    303.03018     782.5215    9.2150726    9.2150726    9.2150726     53.39791 
   23600    305.91267   -10512.331            0   -9601.3758    4634.2149    780.00736     9.205193     9.205193     9.205193    46.621875 
   23700    300.20875   -10494.882            0   -9600.9113    15497.836    778.03864    9.1974419    9.1974419    9.1974419    49.548668 
   23800    310.26199   -10524.941            0   -9601.0341    11500.943    776.97724    9.1932577    9.1932577    9.1932577    40.799471 
   23900     302.9475   -10501.866            0   -9599.7402    12451.836    776.87168    9.1928413    9.1928413    9.1928413    49.536698 
   24000    298.67066   -10490.459            0   -9601.0685    8298.1703    777.82025    9.1965813    9.1965813    9.1965813    38.910577 
Loop time of 22.0475 on 16 procs for 1000 steps with 1000 atoms

Performance: 3.919 ns/day, 6.124 hours/ns, 45.357 timesteps/s
94.3% CPU use with 16 MPI tasks x no OpenMP threads

MPI task timing breakdown:
Section |  min time  |  avg time  |  max time  |%varavg| %total
---------------------------------------------------------------
Pair    | 1.6897     | 1.7659     | 1.8654     |   4.4 |  8.01
Neigh   | 0.67954    | 0.70061    | 0.74366    |   2.2 |  3.18
Comm    | 0.67137    | 0.80653    | 0.90068    |   8.3 |  3.66
Output  | 12.506     | 12.896     | 18.696     |  41.7 | 58.49
Modify  | 0.069019   | 5.87       | 6.2606     |  61.8 | 26.62
Other   |            | 0.008653   |            |       |  0.04

Nlocal:    62.5 ave 68 max 58 min
Histogram: 2 1 1 3 2 2 1 0 1 3
Nghost:    1868.44 ave 1883 max 1858 min
Histogram: 4 1 3 0 1 1 2 2 1 1
Neighs:    0 ave 0 max 0 min
Histogram: 16 0 0 0 0 0 0 0 0 0
FullNghs:  18987.1 ave 20685 max 17547 min
Histogram: 2 2 1 3 1 2 1 1 1 2

Total # of neighbors = 303794
Ave neighs/atom = 303.794
Neighbor list builds = 1000
Dangerous builds not checked
Setting up Verlet run ...
  Unit style    : real
  Current step  : 24000
  Time step     : 1
Per MPI rank memory allocation (min/avg/max) = 4.576 | 4.578 | 4.58 Mbytes
Step Temp E_pair E_mol TotEng Press Volume Lx Ly Lz S/CPU 
   24000    298.67066   -10490.459            0   -9601.0685    8298.1703    777.82025    9.1965813    9.1965813    9.1965813            0 
   24100    316.61782   -10545.418            0   -9602.5838    2015.5603    779.25601    9.2022364    9.2022364    9.2022364    42.685851 
   24200    300.31142   -10498.034            0   -9603.7582    1063.6139    780.63548    9.2076633    9.2076633    9.2076633    43.215256 
   24300    298.06541   -10492.251            0   -9604.6631    1513.8243    781.72039    9.2119268    9.2119268    9.2119268    54.846247 
   24400    290.90422   -10471.693            0   -9605.4295   -6059.1338    782.47362    9.2148846    9.2148846    9.2148846    42.599382 
   24500    283.15203   -10449.722            0   -9606.5436    9487.8677    782.87216    9.2164489    9.2164489    9.2164489    45.843899 
   24600     287.1586   -10460.371            0   -9605.2612   -6647.0887    783.26451    9.2179882    9.2179882    9.2179882    41.009513 
   24700    304.59487   -10512.367            0   -9605.3356    6320.3824    783.43467    9.2186557    9.2186557    9.2186557    42.823995 
   24800     291.8415   -10469.866            0   -9600.8121       -18792     783.8345    9.2202237    9.2202237    9.2202237    42.604498 
   24900    304.57328   -10504.509            0    -9597.542    4143.9139    783.48442    9.2188509    9.2188509    9.2188509    43.903714 
   25000    309.49942   -10513.735            0    -9592.099    3067.5889    782.53091    9.2151095    9.2151095    9.2151095    48.362354 
Loop time of 22.475 on 16 procs for 1000 steps with 1000 atoms

Performance: 3.844 ns/day, 6.243 hours/ns, 44.494 timesteps/s
94.4% CPU use with 16 MPI tasks x no OpenMP threads

MPI task timing breakdown:
Section |  min time  |  avg time  |  max time  |%varavg| %total
---------------------------------------------------------------
Pair    | 1.6284     | 1.774      | 1.9802     |   6.1 |  7.89
Neigh   | 0.66298    | 0.70366    | 0.74974    |   2.4 |  3.13
Comm    | 0.58       | 0.83147    | 1.0177     |  10.9 |  3.70
Output  | 13.274     | 13.643     | 19.118     |  38.3 | 60.70
Modify  | 0.037902   | 5.5138     | 5.8833     |  60.2 | 24.53
Other   |            | 0.008735   |            |       |  0.04

Nlocal:    62.5 ave 70 max 58 min
Histogram: 2 2 2 4 1 3 0 1 0 1
Nghost:    1870.56 ave 1884 max 1843 min
Histogram: 1 0 0 0 4 1 2 3 1 4
Neighs:    0 ave 0 max 0 min
Histogram: 16 0 0 0 0 0 0 0 0 0
FullNghs:  18866.6 ave 21297 max 17428 min
Histogram: 1 3 4 2 3 0 2 0 0 1

Total # of neighbors = 301866
Ave neighs/atom = 301.866
Neighbor list builds = 1000
Dangerous builds not checked
Setting up Verlet run ...
  Unit style    : real
  Current step  : 25000
  Time step     : 1
Per MPI rank memory allocation (min/avg/max) = 4.576 | 4.578 | 4.58 Mbytes
Step Temp E_pair E_mol TotEng Press Volume Lx Ly Lz S/CPU 
   25000    309.49942   -10513.735            0    -9592.099    3067.5889    782.53091    9.2151095    9.2151095    9.2151095            0 
   25100    305.86935   -10498.191            0   -9587.3642    2381.9562    781.50275    9.2110719    9.2110719    9.2110719      37.8983 
   25200    306.27744   -10491.671            0   -9579.6296    12848.755    781.06385    9.2093472    9.2093472    9.2093472    44.880226 
   25300    299.78952   -10462.361            0   -9569.6385    3418.2911    781.25472    9.2100973    9.2100973    9.2100973    32.762709 
   25400    305.64486   -10466.772            0   -9556.6137    14641.408    781.67779    9.2117595    9.2117595    9.2117595    57.708861 
   25500    304.46186   -10446.697            0   -9540.0612    4987.5874    782.55948    9.2152217    9.2152217    9.2152217    42.254608 
   25600    318.74556   -10474.061            0   -9524.8912   -14378.466    783.24986    9.2179308    9.2179308    9.2179308    49.082539 
   25700     313.3197   -10445.175            0   -9512.1626   -10629.463    783.56481    9.2191661    9.2191661    9.2191661    49.728117 
   25800    304.50689   -10409.184            0   -9502.4142   -25.755492    783.45804    9.2187474    9.2187474    9.2187474    39.801578 
   25900    311.47277   -10427.104            0   -9499.5908    5.6036626    783.31315     9.218179     9.218179     9.218179    59.098711 
   26000    300.61121    -10393.94            0   -9498.7709    1483.3609    783.39951    9.2185178    9.2185178    9.2185178    43.249443 
Loop time of 22.5835 on 16 procs for 1000 steps with 1000 atoms

Performance: 3.826 ns/day, 6.273 hours/ns, 44.280 timesteps/s
94.3% CPU use with 16 MPI tasks x no OpenMP threads

MPI task timing breakdown:
Section |  min time  |  avg time  |  max time  |%varavg| %total
---------------------------------------------------------------
Pair    | 1.7229     | 1.8129     | 1.9887     |   4.9 |  8.03
Neigh   | 0.68565    | 0.7175     | 0.7749     |   2.9 |  3.18
Comm    | 0.55831    | 0.77602    | 0.89036    |  10.0 |  3.44
Output  | 13.121     | 13.504     | 19.18      |  39.9 | 59.79
Modify  | 0.08886    | 5.7649     | 6.1478     |  61.0 | 25.53
Other   |            | 0.008724   |            |       |  0.04

Nlocal:    62.5 ave 68 max 59 min
Histogram: 4 0 2 4 1 1 1 0 2 1
Nghost:    1853.56 ave 1871 max 1841 min
Histogram: 3 2 3 0 1 1 1 2 2 1
Neighs:    0 ave 0 max 0 min
Histogram: 16 0 0 0 0 0 0 0 0 0
FullNghs:  18836.4 ave 20550 max 17648 min
Histogram: 3 1 2 3 3 0 1 0 1 2

Total # of neighbors = 301382
Ave neighs/atom = 301.382
Neighbor list builds = 1000
Dangerous builds not checked
Setting up Verlet run ...
  Unit style    : real
  Current step  : 26000
  Time step     : 1
Per MPI rank memory allocation (min/avg/max) = 4.576 | 4.578 | 4.58 Mbytes
Step Temp E_pair E_mol TotEng Press Volume Lx Ly Lz S/CPU 
   26000    300.61121    -10393.94            0   -9498.7709    1483.3609    783.39951    9.2185178    9.2185178    9.2185178            0 
   26100    309.61485   -10422.833            0   -9500.8528    11835.975    783.58558    9.2192476    9.2192476    9.2192476    41.258248 
   26200    310.15471   -10430.844            0   -9507.2566   -2667.7617    783.93834    9.2206308    9.2206308    9.2206308    38.075877 
   26300    303.25753   -10416.393            0   -9513.3439    10206.009    784.45133    9.2226417    9.2226417    9.2226417    37.497379 
   26400     306.6433   -10435.869            0   -9522.7379    6652.2258    785.31478    9.2260242    9.2260242    9.2260242    53.822508 
   26500     313.7719   -10468.136            0   -9533.7767   -6044.5883    786.47004    9.2305461    9.2305461    9.2305461    51.810998 
   26600    300.45781   -10438.606            0   -9543.8938    11438.752     787.9467    9.2363195    9.2363195    9.2363195    37.738754 
   26700    303.13577    -10456.25            0   -9553.5636   -4934.6665     789.5947    9.2427543    9.2427543    9.2427543    40.042918 
   26800    301.45316   -10458.156            0   -9560.4804   -6814.3024    791.00296    9.2482459    9.2482459    9.2482459    43.151429 
   26900     311.1385   -10492.205            0   -9565.6876    5781.9131    791.93493    9.2518766    9.2518766    9.2518766    44.893637 
   27000    308.16686   -10487.868            0   -9570.1993    2714.5659    792.46114    9.2539254    9.2539254    9.2539254    34.738196 
Loop time of 24.0757 on 16 procs for 1000 steps with 1000 atoms

Performance: 3.589 ns/day, 6.688 hours/ns, 41.536 timesteps/s
94.3% CPU use with 16 MPI tasks x no OpenMP threads

MPI task timing breakdown:
Section |  min time  |  avg time  |  max time  |%varavg| %total
---------------------------------------------------------------
Pair    | 1.5869     | 1.7215     | 1.8612     |   5.0 |  7.15
Neigh   | 0.64082    | 0.68835    | 0.728      |   2.8 |  2.86
Comm    | 0.62521    | 0.79665    | 0.97857    |   9.8 |  3.31
Output  | 13.744     | 14.189     | 20.802     |  45.3 | 58.93
Modify  | 0.057969   | 6.672      | 7.1166     |  66.1 | 27.71
Other   |            | 0.008521   |            |       |  0.04

Nlocal:    62.5 ave 67 max 58 min
Histogram: 1 1 1 3 2 3 0 4 0 1
Nghost:    1847.12 ave 1872 max 1821 min
Histogram: 2 1 1 2 2 3 0 0 3 2
Neighs:    0 ave 0 max 0 min
Histogram: 16 0 0 0 0 0 0 0 0 0
FullNghs:  18646.8 ave 19875 max 17057 min
Histogram: 1 1 1 1 3 2 2 0 3 2

Total # of neighbors = 298348
Ave neighs/atom = 298.348
Neighbor list builds = 1000
Dangerous builds not checked
Setting up Verlet run ...
  Unit style    : real
  Current step  : 27000
  Time step     : 1
Per MPI rank memory allocation (min/avg/max) = 4.576 | 4.578 | 4.58 Mbytes
Step Temp E_pair E_mol TotEng Press Volume Lx Ly Lz S/CPU 
   27000    308.16686   -10487.868            0   -9570.1993    2714.5659    792.46114    9.2539254    9.2539254    9.2539254            0 
   27100      305.448   -10483.966            0   -9574.3937     3365.159    792.55569    9.2542934    9.2542934    9.2542934    44.806401 
   27200    301.09442   -10474.016            0   -9577.4082    9268.3107    792.27847    9.2532142    9.2532142    9.2532142    53.804402 
   27300     291.5386   -10447.603            0   -9579.4511    4553.5614     792.0385    9.2522799    9.2522799    9.2522799    43.987741 
   27400    295.86666    -10465.02            0   -9583.9791   -7405.7791    791.63092    9.2506926    9.2506926    9.2506926    47.977014 
   27500     310.0623   -10510.869            0   -9587.5565   -801.55064    791.24865    9.2492034    9.2492034    9.2492034    54.532326 
   27600    299.90788   -10483.392            0    -9590.318    1021.9186    790.70138    9.2470704    9.2470704    9.2470704    43.430397 
   27700    301.41525   -10491.608            0   -9594.0445    9396.5954    789.89832    9.2439388    9.2439388    9.2439388     38.44457 
   27800    292.75898   -10469.868            0   -9598.0818    588.92629    789.59968    9.2427737    9.2427737    9.2427737    50.364689 
   27900     310.4428   -10527.037            0   -9602.5918   -20827.964    789.70691    9.2431921    9.2431921    9.2431921    41.084569 
   28000    289.54539   -10468.682            0   -9606.4653    1314.2365    789.63002    9.2428921    9.2428921    9.2428921    42.439074 
Loop time of 21.9614 on 16 procs for 1000 steps with 1000 atoms

Performance: 3.934 ns/day, 6.100 hours/ns, 45.534 timesteps/s
[...]
  533700    323.94155   -11509.552            0    -10544.91    27107.663    722.76659    8.9742746    8.9742746    8.9742746    31.524465 
  533800     310.5496   -11468.779            0   -10544.015    9580.7962    725.44395    8.9853422    8.9853422    8.9853422    25.949229 
  533900    309.01609   -11468.136            0   -10547.939   -13145.732     728.6241    8.9984528    8.9984528    8.9984528    23.523719 
  534000     315.3669   -11494.759            0   -10555.651   -12470.885    731.21408    9.0091022    9.0091022    9.0091022    26.572564 
  534100    309.52157   -11489.721            0   -10568.019   -29939.441    732.52214    9.0144711    9.0144711    9.0144711    26.882087 
  534200    308.07807   -11502.504            0     -10585.1   -26881.842    732.18605    9.0130923    9.0130923    9.0130923     30.33571 
  534300    296.93162   -11485.181            0   -10600.969   -19721.169    730.39319    9.0057296    9.0057296    9.0057296    25.190282 
  534400    301.23614   -11513.196            0   -10616.166     -5732.06    727.62737    8.9943478    8.9943478    8.9943478    27.827625 
  534500     310.0952   -11550.572            0   -10627.161    1893.1951    724.60531    8.9818784    8.9818784    8.9818784    28.549561 
  534600     305.4602   -11542.885            0   -10633.277    11106.649    722.14689    8.9717091    8.9717091    8.9717091    27.024883 
  534700    297.19747   -11523.543            0    -10638.54    31268.725    720.93182    8.9666744    8.9666744    8.9666744    25.926704 
  534800    297.47879   -11531.248            0   -10645.407    27663.801    721.10792    8.9674044    8.9674044    8.9674044    29.539965 
  534900    300.06167   -11544.491            0   -10650.959    22113.702    722.63033    8.9737107    8.9737107    8.9737107    24.925732 
  535000     297.7822   -11541.179            0   -10654.435    4853.0125    725.23981    8.9844993    8.9844993    8.9844993     26.75614 
  535100    299.10127    -11548.18            0   -10657.508   -9650.5948    727.78249    8.9949869    8.9949869    8.9949869     30.93264 
  535200    293.77476   -11534.826            0   -10660.015   -27885.683    729.47052    9.0019359    9.0019359    9.0019359    28.674098 
  535300     291.2078   -11528.708            0   -10661.541   -21470.162    729.78308    9.0032214    9.0032214    9.0032214     28.13473 
  535400    292.15141   -11532.119            0   -10662.142   -15214.901     728.8338     8.999316     8.999316     8.999316    24.601681 
  535500    292.85195    -11534.81            0   -10662.747   -12592.584    727.00744    8.9917927    8.9917927    8.9917927     27.51325 
  535600    297.54897   -11548.761            0   -10662.711   -12581.898    724.64769    8.9820535    8.9820535    8.9820535    25.264184 
  535700    288.27787   -11518.196            0   -10659.753    12754.593    722.21626    8.9719963    8.9719963    8.9719963    23.629768 
  535800    298.27215   -11546.278            0   -10658.074    15207.796    720.75899    8.9659578    8.9659578    8.9659578    31.757135 
  535900    289.74147   -11516.314            0   -10653.513    20787.115    720.56958    8.9651723    8.9651723    8.9651723    29.629671 
  536000    295.12871   -11529.119            0   -10650.276    25212.191    721.49996    8.9690292    8.9690292    8.9690292    27.961794 
  536100    300.75962   -11540.728            0   -10645.117    16001.179     723.4076    8.9769269    8.9769269    8.9769269    26.785121 
  536200    300.54912   -11531.607            0   -10636.623    591.49537    725.88473    8.9871616    8.9871616    8.9871616    27.942466 
  536300    298.98626   -11517.469            0   -10627.139   -12523.747      728.441     8.997699     8.997699     8.997699    21.864885 
  536400     308.7215   -11535.717            0   -10616.397   -16296.272    730.40423     9.005775     9.005775     9.005775    28.937007 
  536500    300.30559   -11496.632            0   -10602.373   -11538.006    731.46923      9.01015      9.01015      9.01015    29.718184 
  536600    303.89653   -11496.896            0   -10591.944    -17705.28    731.47355    9.0101677    9.0101677    9.0101677    26.965685 
  536700    300.22426   -11475.733            0   -10581.716   -5750.5791    730.30015    9.0053472    9.0053472    9.0053472    28.975904 
  536800    300.39621   -11470.591            0   -10576.063   -6798.0421    728.35926    8.9973624    8.9973624    8.9973624    28.550804 
  536900    322.09115   -11531.831            0   -10572.698    7642.3105    726.31433    8.9889343    8.9889343    8.9889343    25.547206 
  537000    302.74139   -11472.444            0   -10570.932    7220.6281     724.6612    8.9821093    8.9821093    8.9821093    31.073049 
  537100    310.10591   -11495.612            0    -10572.17    22946.704    723.85786     8.978789     8.978789     8.978789    26.683177 
  537200     307.6209   -11492.357            0   -10576.314    19217.627     724.3301    8.9807411    8.9807411    8.9807411    29.186516 
  537300    309.81455   -11505.743            0   -10583.168    5882.6865    725.83819    8.9869696    8.9869696    8.9869696    27.309988 
  537400    304.60919   -11495.645            0   -10588.571    2151.2986    727.76645    8.9949208    8.9949208    8.9949208    28.264346 
  537500    299.89093   -11487.705            0   -10594.681   -1367.2321    729.87168    9.0035857    9.0035857    9.0035857    29.604335 
  537600     308.1452   -11518.729            0   -10601.125   -32819.448    731.48187    9.0102019    9.0102019    9.0102019    26.471792 
  537700     298.0777   -11494.085            0   -10606.461     -18298.2    731.83223    9.0116402    9.0116402    9.0116402    27.542197 
  537800    298.18355   -11498.769            0   -10610.829   -21623.742    730.89671    9.0077986    9.0077986    9.0077986     27.23816 
  537900    299.99218   -11509.165            0    -10615.84    -14231.19    728.79389    8.9991517    8.9991517    8.9991517    30.456906 
  538000    303.08373   -11521.793            0   -10619.261     6541.677    726.13078     8.988177     8.988177     8.988177    25.112776 
  538100    296.16927    -11503.63            0   -10621.689    7095.2931    723.73487    8.9782804    8.9782804    8.9782804    28.170713 
  538200    318.37267   -11572.539            0   -10624.479    38217.923    722.33667    8.9724949    8.9724949    8.9724949    28.507125 
  538300    298.87695   -11514.518            0   -10624.514    10526.944    722.51315    8.9732256    8.9732256    8.9732256    33.525631 
  538400    302.39937   -11527.563            0    -10627.07    16493.389    723.87569    8.9788627    8.9788627    8.9788627    27.784616 
  538500    301.25504   -11525.862            0   -10628.776    5078.8792    726.15095    8.9882602    8.9882602    8.9882602    26.948619 
  538600    312.25778   -11560.759            0   -10630.909   -11479.799     728.6417    8.9985253    8.9985253    8.9985253    27.870754 
  538700     290.2806   -11494.561            0   -10630.155   -19421.472    730.59129    9.0065438    9.0065438    9.0065438    29.521916 
  538800    289.70893   -11493.312            0   -10630.609   -19105.183    731.44526    9.0100516    9.0100516    9.0100516    30.970253 
  538900    301.73294   -11529.791            0   -10631.281   -25483.218    730.93658    9.0079624    9.0079624    9.0079624    26.905196 
  539000    300.93794   -11527.545            0   -10631.403   -18049.998    729.05912    9.0002433    9.0002433    9.0002433    27.731438 
  539100    309.74868   -11553.057            0   -10630.678   -8978.5877    726.47298    8.9895887    8.9895887    8.9895887    29.464502 
  539200    300.29142    -11524.12            0   -10629.903    6436.0901    723.86994    8.9788389    8.9788389    8.9788389    26.447157 
  539300     314.5757   -11567.372            0   -10630.619    22703.783     721.7829    8.9702014    8.9702014    8.9702014    31.028033 
  539400    310.34823   -11555.063            0   -10630.899    21949.693    721.06303    8.9672183    8.9672183    8.9672183    25.008027 
  539500    302.70476   -11533.421            0   -10632.017    10601.085    722.19844    8.9719225    8.9719225    8.9719225    29.484474 
  539600    296.46533   -11515.671            0   -10632.848    9859.5007     724.5745    8.9817511    8.9817511    8.9817511    28.081639 
  539700    282.73489   -11477.363            0   -10635.427    474.52215    727.65759    8.9944723    8.9944723    8.9944723    22.175508 
  539800    295.94608   -11519.667            0    -10638.39   -30434.069    730.40431    9.0057753    9.0057753    9.0057753    27.727185 
  539900    299.61021   -11533.835            0   -10641.647   -30167.054    731.92785    9.0120327    9.0120327    9.0120327    26.982566 
  540000    306.19569   -11558.199            0   -10646.401   -23989.414    731.77414    9.0114018    9.0114018    9.0114018     27.99998 
  540100    293.32542   -11523.039            0   -10649.566    -17051.15    730.18912    9.0048908    9.0048908    9.0048908    29.512306 
  540200    311.18667   -11581.315            0   -10654.654   -2995.5068    727.83241    8.9951925    8.9951925    8.9951925    27.073177 
  540300    280.30267    -11491.97            0   -10657.277    5629.3162    725.43413    8.9853016    8.9853016    8.9853016    25.328131 
  540400    295.98104   -11542.541            0    -10661.16    2358.6302    723.60103    8.9777269    8.9777269    8.9777269    26.408268 
  540500    283.74031   -11508.794            0   -10663.864    15115.795    722.61889    8.9736633    8.9736633    8.9736633    26.157966 
  540600    305.68775    -11580.21            0   -10669.924    12399.446    722.75337    8.9742199    8.9742199    8.9742199    28.152348 
  540700    308.31115   -11592.624            0   -10674.526   -505.57591    723.72427    8.9782366    8.9782366    8.9782366    28.629615 
  540800    292.35759   -11547.244            0   -10676.653   -159.07708    725.23299    8.9844711    8.9844711    8.9844711    28.046065 
  540900    285.70465   -11531.437            0   -10680.657    -1402.111    726.80816     8.990971     8.990971     8.990971      28.2819 
  541000    284.86323    -11533.02            0   -10684.746   -4097.3028    727.95427    8.9956945    8.9956945    8.9956945    29.268815 
  541100    294.21718   -11564.015            0   -10687.887   -12292.822    728.51077    8.9979863    8.9979863    8.9979863    26.975379 
  541200    289.58513   -11550.191            0   -10687.856   -21442.693    728.34427    8.9973007    8.9973007    8.9973007    24.727163 
  541300     292.9451   -11560.211            0   -10687.871   -9213.3292    727.33572    8.9931459    8.9931459    8.9931459    26.376241 
  541400    290.02599   -11548.756            0   -10685.108    3756.0246    725.86011      8.98706      8.98706      8.98706    24.444234 
  541500    295.83486    -11562.45            0   -10681.505    702.08461    724.49734    8.9814323    8.9814323    8.9814323    29.341647 
  541600    303.10187    -11577.99            0   -10675.405    12496.468    723.45296    8.9771145    8.9771145    8.9771145    28.092669 
  541700     307.5212   -11585.412            0   -10669.666    15264.352    723.08843    8.9756065    8.9756065    8.9756065    28.026962 
  541800    300.20813   -11554.541            0   -10660.572     13236.02     723.4668    8.9771718    8.9771718    8.9771718     29.51142 
  541900    300.28962   -11545.405            0   -10651.194    8278.0525    724.42588    8.9811369    8.9811369    8.9811369    27.559584 
  542000    302.96653   -11543.616            0   -10641.434    5398.4674    725.66039    8.9862357    8.9862357    8.9862357    26.954047 
  542100    298.68163   -11520.607            0   -10631.184    600.92424    727.01928    8.9918415    8.9918415    8.9918415    31.046395 
  542200    296.69465   -11505.275            0   -10621.769   -15055.501    727.93539    8.9956168    8.9956168    8.9956168    25.259024 
  542300    304.57812    -11520.69            0   -10613.708   -7796.6503    728.33391    8.9972581    8.9972581    8.9972581    26.867318 
  542400    307.58396   -11523.429            0   -10607.496   -2574.1601     728.2369    8.9968586    8.9968586    8.9968586    26.514422 
  542500    316.12732   -11544.195            0   -10602.822    7423.8806    727.50174    8.9938301    8.9938301    8.9938301    22.349911 
  542600    305.69457   -11509.685            0   -10599.379   -3976.6258    726.51907    8.9897788    8.9897788    8.9897788     30.88164 
  542700    299.82067   -11490.189            0   -10597.374     5768.058    725.34966    8.9849529    8.9849529    8.9849529    23.916241 
  542800    300.77922   -11493.702            0   -10598.033    6504.0219    724.59785    8.9818476    8.9818476    8.9818476     30.11626 
  542900    307.12124   -11514.606            0   -10600.051    6614.9827    724.51644    8.9815112    8.9815112    8.9815112     28.31028 
  543000    308.26124   -11521.895            0   -10603.946    678.35035     725.1051     8.983943     8.983943     8.983943    29.045614 
  543100    312.30251   -11540.351            0   -10610.368   -2194.3856    726.13004    8.9881739    8.9881739    8.9881739    30.095692 
  543200    314.83188   -11555.369            0   -10617.854   -3802.8416    727.10759    8.9922056    8.9922056    8.9922056    27.050753 
  543300    294.50508   -11504.566            0    -10627.58   -3580.0869    727.68912    8.9946022    8.9946022    8.9946022    25.697968 
  543400    298.28401   -11528.798            0   -10640.559    -8174.954     727.6933    8.9946194    8.9946194    8.9946194    27.139089 
  543500    301.15109   -11551.717            0    -10654.94   -7356.8202    727.32025    8.9930821    8.9930821    8.9930821    25.879776 
  543600    291.15954   -11536.348            0   -10669.324   -9800.9449    726.69666    8.9905112    8.9905112    8.9905112     26.45498 
  543700    305.89976   -11591.981            0   -10681.063    -12023.76    725.67894    8.9863123    8.9863123    8.9863123    25.705938 
  543800    293.33109   -11560.241            0   -10686.751   -2034.4676    724.45401    8.9812532    8.9812532    8.9812532    26.514562 
  543900    287.18514    -11545.58            0   -10690.392    3976.0572    723.50526    8.9773308    8.9773308    8.9773308    28.030639 
  544000    295.79745   -11573.139            0   -10692.305    8449.3544    723.03665    8.9753922    8.9753922    8.9753922    26.849642 
  544100     308.0114   -11609.621            0   -10692.416    12503.705    723.25474    8.9762946    8.9762946    8.9762946    28.522803 
  544200    289.59072   -11551.464            0   -10689.112    9675.2094    724.14473    8.9799749    8.9799749    8.9799749    26.659954 
  544300    285.45516   -11537.215            0   -10687.178   -1263.5603    725.53118    8.9857023    8.9857023    8.9857023    28.476139 
  544400    301.68039   -11583.909            0   -10685.557   -1746.9576    726.94996    8.9915557    8.9915557    8.9915557    27.676897 
  544500    287.52049   -11536.815            0   -10680.628   -5425.6124    727.99397     8.995858     8.995858     8.995858    28.878812 
  544600    292.76518   -11547.987            0   -10676.182   -10206.854    728.31827    8.9971936    8.9971936    8.9971936    26.592484 
  544700     299.3097   -11561.268            0   -10669.975   -3306.6499    727.83148    8.9951887    8.9951887    8.9951887    22.915052 
  544800     301.1435   -11558.572            0   -10661.818   -15986.632    726.88678    8.9912952    8.9912952    8.9912952    30.311209 
  544900    302.75095   -11556.683            0   -10655.142    10070.747    725.60919    8.9860243    8.9860243    8.9860243    25.481404 
  545000    302.97619    -11549.12            0   -10646.908    6571.9562    724.61776    8.9819298    8.9819298    8.9819298    26.400168 
  545100    298.49331   -11528.792            0    -10639.93    8296.9902    724.09449    8.9797673    8.9797673    8.9797673    26.861727 
  545200    302.59326   -11535.152            0   -10634.081      2086.41    724.15295    8.9800089    8.9800089    8.9800089    27.699262 
  545300    309.35188   -11550.891            0   -10629.694    97.762096    724.70671    8.9822973    8.9822973    8.9822973    28.937176 
  545400    314.62119   -11563.286            0   -10626.398    -11708.71    725.45084    8.9853707    8.9853707    8.9853707    25.406854 
  545500    310.28598   -11545.971            0   -10621.993    2696.8503    726.00241    8.9876473    8.9876473    8.9876473    27.224898 
  545600    315.42737   -11558.771            0   -10619.482   -7043.4886    726.35321    8.9890947    8.9890947    8.9890947    26.560365 
  545700    307.77798    -11533.16            0    -10616.65   -2062.7077    726.69309    8.9904965    8.9904965    8.9904965    22.812385 
  545800    302.52242   -11516.793            0   -10615.933    -3583.634    726.84791    8.9911349    8.9911349    8.9911349    29.175163 
  545900    304.25053   -11523.069            0   -10617.063   -6292.8936    726.78671    8.9908826    8.9908826    8.9908826    27.948922 
  546000    301.70759    -11518.66            0   -10620.226   -3200.9787    726.47219    8.9895854    8.9895854    8.9895854    31.498699 
  546100    298.23108   -11513.702            0   -10625.621   -3431.4208     726.0753    8.9879481    8.9879481    8.9879481    25.762513 
  546200    296.11479   -11517.242            0   -10635.463   -1405.0211    725.88594    8.9871666    8.9871666    8.9871666    23.708908 
  546300    299.19375   -11540.437            0   -10649.489    6731.3712    725.53917    8.9857353    8.9857353    8.9857353    30.601723 
  546400    300.62352   -11561.044            0   -10665.839    2097.4878    725.18322    8.9842656    8.9842656    8.9842656     23.95171 
  546500    286.31369   -11531.204            0   -10678.611   -4818.2586    724.86482    8.9829505    8.9829505    8.9829505    26.360875 
  546600    289.04247   -11551.543            0   -10690.824   -145.38465    724.73425    8.9824111    8.9824111    8.9824111    27.221896 
  546700    295.27324   -11577.728            0   -10698.455    3369.6337     724.7679    8.9825501    8.9825501    8.9825501    24.704953 
  546800    291.23951   -11569.744            0   -10702.482    5664.7419    724.88006    8.9830135    8.9830135    8.9830135    27.474005 
  546900    291.25568   -11570.925            0   -10703.616    4210.2261    724.94006    8.9832613    8.9832613    8.9832613    27.742372 
  547000    282.72705   -11546.205            0   -10704.292     5839.813    724.86208    8.9829392    8.9829392    8.9829392    25.566298 
Loop time of 3609.19 on 16 procs for 100000 steps with 1000 atoms

Performance: 2.394 ns/day, 10.026 hours/ns, 27.707 timesteps/s
94.1% CPU use with 16 MPI tasks x no OpenMP threads

MPI task timing breakdown:
Section |  min time  |  avg time  |  max time  |%varavg| %total
---------------------------------------------------------------
Pair    | 158.14     | 174.89     | 201.01     | 100.4 |  4.85
Neigh   | 65.113     | 71.537     | 79.735     |  52.7 |  1.98
Comm    | 57.303     | 91.52      | 113.21     | 183.2 |  2.54
Output  | 2311.1     | 2371.1     | 3265.2     | 474.1 | 65.70
Modify  | 4.9927     | 899.2      | 959.31     | 770.0 | 24.91
Other   |            | 0.8927     |            |       |  0.02

Nlocal:    62.5 ave 71 max 53 min
Histogram: 3 2 1 0 0 1 2 1 5 1
Nghost:    1956.75 ave 1986 max 1934 min
Histogram: 3 1 1 2 4 0 2 1 1 1
Neighs:    0 ave 0 max 0 min
Histogram: 16 0 0 0 0 0 0 0 0 0
FullNghs:  20286.4 ave 22901 max 17065 min
Histogram: 3 2 0 1 0 1 1 1 6 1

Total # of neighbors = 324582
Ave neighs/atom = 324.582
Neighbor list builds = 100000
Dangerous builds not checked
Total wall time: 4:24:58
