LAMMPS (16 Mar 2018)
Reading data file ...
  orthogonal box = (-4.73508 -4.73508 -4.73508) to (4.73508 4.73508 4.73508)
  2 by 2 by 4 MPI processor grid
  reading atoms ...
  1000 atoms
Reading potential file /home/fs01/ajm529/lammps-16Mar18/potentials/sw_potentials/AG/eps2.23.sw with DATE: 2008-01-29
Neighbor list info ...
  update every 1 steps, delay 0 steps, check no
  max neighbors/atom: 2000, page size: 100000
  master list distance cutoff = 3.836
  ghost atom cutoff = 3.836
  binsize = 1.918, bins = 5 5 5
  1 neighbor lists, perpetual/occasional/extra = 1 0 0
  (1) pair sw, perpetual
      attributes: full, newton on
      pair build: full/bin/atomonly
      stencil: full/bin/3d
      bin: standard
Setting up Verlet run ...
  Unit style    : real
  Current step  : 0
  Time step     : 1
Per MPI rank memory allocation (min/avg/max) = 3.518 | 3.518 | 3.519 Mbytes
Step Temp E_pair E_mol TotEng Press Volume Lx Ly Lz S/CPU 
       0          300   -10077.246            0   -9183.8976    -33791.72    849.32047    9.4701574    9.4701574    9.4701574            0 
     100    339.67805   -10202.127            0   -9190.6233   -50325.017    847.43508    9.4631447    9.4631447    9.4631447    46.594655 
     200    337.15428    -10208.93            0   -9204.9425   -46584.694    841.74086    9.4419016    9.4419016    9.4419016    49.058802 
     300    329.11902   -10210.405            0    -9230.345   -48445.867      832.773    9.4082507    9.4082507    9.4082507    59.210947 
     400    329.96182   -10238.966            0   -9256.3956   -20161.865    821.27545     9.364752     9.364752     9.364752    40.082902 
     500    335.37513   -10276.621            0   -9277.9309   -7958.6652     809.4871    9.3197296    9.3197296    9.3197296    52.788927 
     600    332.06358   -10282.697            0    -9293.868    7266.7138    799.18005     9.280005     9.280005     9.280005    54.374701 
     700    327.45912   -10283.533            0   -9308.4159    17412.836    791.45302    9.2499996    9.2499996    9.2499996    53.538684 
     800    329.22918   -10307.495            0   -9327.1069    28544.193    786.40472    9.2302905    9.2302905    9.2302905     40.86265 
     900    333.51857   -10341.362            0   -9348.2004     8113.641    783.69589    9.2196802    9.2196802    9.2196802    58.818204 
    1000    324.13588   -10335.537            0   -9370.3154    26526.365    782.34983    9.2143987    9.2143987    9.2143987    53.756079 
Loop time of 19.9771 on 16 procs for 1000 steps with 1000 atoms

Performance: 4.325 ns/day, 5.549 hours/ns, 50.057 timesteps/s
94.3% CPU use with 16 MPI tasks x no OpenMP threads

MPI task timing breakdown:
Section |  min time  |  avg time  |  max time  |%varavg| %total
---------------------------------------------------------------
Pair    | 1.5745     | 1.6241     | 1.7268     |   3.0 |  8.13
Neigh   | 0.57827    | 0.59606    | 0.62865    |   1.4 |  2.98
Comm    | 0.37512    | 0.51035    | 0.56991    |   6.8 |  2.55
Output  | 12.566     | 12.86      | 17.219     |  31.4 | 64.37
Modify  | 0.020504   | 4.3797     | 4.6736     |  53.8 | 21.92
Other   |            | 0.006883   |            |       |  0.03

Nlocal:    62.5 ave 68 max 57 min
Histogram: 1 2 1 2 2 2 2 2 0 2
Nghost:    1864.31 ave 1883 max 1847 min
Histogram: 2 2 0 3 2 1 1 3 0 2
Neighs:    0 ave 0 max 0 min
Histogram: 16 0 0 0 0 0 0 0 0 0
FullNghs:  18880.6 ave 20672 max 17252 min
Histogram: 1 2 2 1 2 3 2 1 1 1

Total # of neighbors = 302090
Ave neighs/atom = 302.09
Neighbor list builds = 1000
Dangerous builds not checked
Setting up Verlet run ...
  Unit style    : real
  Current step  : 1000
  Time step     : 1
Per MPI rank memory allocation (min/avg/max) = 4.577 | 4.578 | 4.579 Mbytes
Step Temp E_pair E_mol TotEng Press Volume Lx Ly Lz S/CPU 
    1000    324.13588   -10335.537            0   -9370.3154    26526.365    782.34983    9.2143987    9.2143987    9.2143987            0 
    1100    328.07368   -10369.427            0   -9392.4792    15528.512    782.47717    9.2148985    9.2148985    9.2148985    49.368269 
    1200    315.13233   -10351.817            0    -9413.407    7801.1563    783.92944    9.2205959    9.2205959    9.2205959    43.900122 
    1300    330.09165   -10419.708            0   -9436.7518    1546.2022    785.83497    9.2280609    9.2280609    9.2280609    62.007158 
    1400    318.98461   -10407.654            0   -9457.7721    -8576.641    787.82954    9.2358617    9.2358617    9.2358617    54.008543 
    1500    310.09804   -10401.237            0    -9477.818    8217.5045    789.40962    9.2420321    9.2420321    9.2420321    42.009871 
    1600    302.95672   -10399.024            0   -9496.8703   -2523.9929    791.18871    9.2489698    9.2489698    9.2489698    54.058555 
    1700    308.34288   -10433.281            0   -9515.0888   -3572.1552    793.14828    9.2565993    9.2565993    9.2565993    49.046576 
    1800     306.1861   -10444.268            0    -9532.498   -2943.9365    794.99113    9.2637628    9.2637628    9.2637628    63.069266 
    1900    310.99557   -10474.181            0   -9548.0894   -15150.089    796.12999    9.2681843    9.2681843    9.2681843    50.984075 
    2000    304.85698   -10470.701            0   -9562.8892   -23207.653    796.18609     9.268402     9.268402     9.268402    46.981529 
Loop time of 19.7124 on 16 procs for 1000 steps with 1000 atoms

Performance: 4.383 ns/day, 5.476 hours/ns, 50.730 timesteps/s
94.4% CPU use with 16 MPI tasks x no OpenMP threads

MPI task timing breakdown:
Section |  min time  |  avg time  |  max time  |%varavg| %total
---------------------------------------------------------------
Pair    | 1.6078     | 1.7223     | 1.9269     |   5.3 |  8.74
Neigh   | 0.58777    | 0.60591    | 0.67315    |   2.5 |  3.07
Comm    | 0.3616     | 0.63327    | 0.76695    |  11.0 |  3.21
Output  | 11.524     | 11.852     | 16.722     |  36.5 | 60.13
Modify  | 0.021086   | 4.8916     | 5.2198     |  56.9 | 24.81
Other   |            | 0.006936   |            |       |  0.04

Nlocal:    62.5 ave 72 max 58 min
Histogram: 4 0 4 2 3 2 0 0 0 1
Nghost:    1828.75 ave 1855 max 1807 min
Histogram: 2 2 1 2 3 2 0 0 3 1
Neighs:    0 ave 0 max 0 min
Histogram: 16 0 0 0 0 0 0 0 0 0
FullNghs:  18549.1 ave 21553 max 17009 min
Histogram: 3 1 3 3 3 2 0 0 0 1

Total # of neighbors = 296786
Ave neighs/atom = 296.786
Neighbor list builds = 1000
Dangerous builds not checked
Setting up Verlet run ...
  Unit style    : real
  Current step  : 2000
  Time step     : 1
Per MPI rank memory allocation (min/avg/max) = 4.577 | 4.578 | 4.579 Mbytes
Step Temp E_pair E_mol TotEng Press Volume Lx Ly Lz S/CPU 
    2000    304.85698   -10470.701            0   -9562.8892   -23207.653    796.18609     9.268402     9.268402     9.268402            0 
    2100    297.22184   -10461.418            0   -9576.3421   -12733.873    794.74524    9.2628076    9.2628076    9.2628076    50.405365 
    2200    296.13021   -10471.485            0   -9589.6599   -10895.752    792.02655    9.2522334    9.2522334    9.2522334    53.866269 
    2300    306.53839   -10515.018            0   -9602.1987   -10134.622    788.39599    9.2380747    9.2380747    9.2380747    56.385544 
    2400    296.00353    -10493.68            0   -9612.2321    4969.9881    784.29233    9.2220185    9.2220185    9.2220185     52.45882 
    2500    295.87808   -10502.678            0   -9621.6037   -2906.2879    780.33831    9.2064947    9.2064947    9.2064947    57.749013 
    2600    298.52383   -10517.874            0   -9628.9213    16998.989    777.04743    9.1935345    9.1935345    9.1935345    60.267808 
    2700    297.00188   -10520.753            0   -9636.3321    4937.4898     775.1246     9.185945     9.185945     9.185945    47.205777 
    2800    304.35283   -10550.281            0   -9643.9702    18873.512    774.69927    9.1842645    9.1842645    9.1842645    54.547209 
    2900    306.24181   -10565.066            0   -9653.1303    13417.798    775.44785    9.1872218    9.1872218    9.1872218    43.078835 
    3000    292.73037   -10531.881            0   -9660.1795   -8726.8308    777.14413    9.1939159    9.1939159    9.1939159    74.365411 
Loop time of 18.5287 on 16 procs for 1000 steps with 1000 atoms

Performance: 4.663 ns/day, 5.147 hours/ns, 53.970 timesteps/s
94.5% CPU use with 16 MPI tasks x no OpenMP threads

MPI task timing breakdown:
Section |  min time  |  avg time  |  max time  |%varavg| %total
---------------------------------------------------------------
Pair    | 1.6498     | 1.7426     | 1.8598     |   3.4 |  9.40
Neigh   | 0.58914    | 0.60638    | 0.65732    |   2.0 |  3.27
Comm    | 0.41844    | 0.58629    | 0.6958     |   7.6 |  3.16
Output  | 10.522     | 10.841     | 15.565     |  37.0 | 58.51
Modify  | 0.020738   | 4.7458     | 5.0644     |  56.0 | 25.61
Other   |            | 0.006937   |            |       |  0.04

Nlocal:    62.5 ave 71 max 56 min
Histogram: 2 1 5 1 0 1 2 1 2 1
Nghost:    1863.69 ave 1877 max 1847 min
Histogram: 1 0 1 2 2 3 1 3 2 1
Neighs:    0 ave 0 max 0 min
Histogram: 16 0 0 0 0 0 0 0 0 0
FullNghs:  18997.4 ave 21865 max 16983 min
Histogram: 2 4 2 1 0 2 1 2 1 1

Total # of neighbors = 303958
Ave neighs/atom = 303.958
Neighbor list builds = 1000
Dangerous builds not checked
Setting up Verlet run ...
  Unit style    : real
  Current step  : 3000
  Time step     : 1
Per MPI rank memory allocation (min/avg/max) = 4.577 | 4.578 | 4.579 Mbytes
Step Temp E_pair E_mol TotEng Press Volume Lx Ly Lz S/CPU 
    3000    292.73037   -10531.881            0   -9660.1795   -8726.8308    777.14413    9.1939159    9.1939159    9.1939159            0 
    3100    296.37917   -10547.022            0   -9664.4558    -17282.29    779.07003    9.2015043    9.2015043    9.2015043     70.92143 
    3200    288.62402   -10526.455            0   -9666.9815     10038.87    780.67897    9.2078343    9.2078343    9.2078343    55.144813 
    3300    297.96523    -10556.31            0     -9669.02   -19873.212    782.10098    9.2134216    9.2134216    9.2134216    73.032172 
    3400    304.39071   -10575.222            0   -9668.7987   -12752.391    782.63014     9.215499     9.215499     9.215499    60.354167 
    3500    292.20472    -10537.19            0   -9667.0546   -7781.0611    782.23858    9.2139618    9.2139618    9.2139618    59.035801 
    3600    298.36866   -10551.458            0   -9662.9666   -6020.9682    781.20933    9.2099189    9.2099189    9.2099189    65.002497 
    3700    293.80843   -10531.727            0   -9656.8153    4955.8993    780.43126    9.2068603    9.2068603    9.2068603    41.530456 
    3800    301.33108   -10547.401            0   -9650.0885    10803.232     780.3239    9.2064381    9.2064381    9.2064381    60.371865 
    3900    302.08124   -10540.411            0   -9640.8648    1606.1783    780.81633    9.2083743    9.2083743    9.2083743    64.156333 
    4000    292.35471   -10501.666            0   -9631.0833    5729.6145    781.53992    9.2112179    9.2112179    9.2112179    62.252011 
Loop time of 16.7112 on 16 procs for 1000 steps with 1000 atoms

Performance: 5.170 ns/day, 4.642 hours/ns, 59.840 timesteps/s
94.6% CPU use with 16 MPI tasks x no OpenMP threads

MPI task timing breakdown:
Section |  min time  |  avg time  |  max time  |%varavg| %total
---------------------------------------------------------------
Pair    | 1.6864     | 1.7564     | 1.9383     |   4.5 | 10.51
Neigh   | 0.58674    | 0.60815    | 0.67206    |   2.4 |  3.64
Comm    | 0.38802    | 0.63367    | 0.72646    |   9.8 |  3.79
Output  | 9.1794     | 9.4639     | 13.684     |  35.4 | 56.63
Modify  | 0.021124   | 4.2422     | 4.5267     |  52.9 | 25.39
Other   |            | 0.00694    |            |       |  0.04

Nlocal:    62.5 ave 69 max 56 min
Histogram: 1 0 3 3 1 2 2 2 0 2
Nghost:    1866.12 ave 1881 max 1851 min
Histogram: 2 1 0 2 4 2 0 0 2 3
Neighs:    0 ave 0 max 0 min
Histogram: 16 0 0 0 0 0 0 0 0 0
FullNghs:  18882.1 ave 20900 max 16946 min
Histogram: 1 0 5 1 1 3 1 2 0 2

Total # of neighbors = 302114
Ave neighs/atom = 302.114
Neighbor list builds = 1000
Dangerous builds not checked
Setting up Verlet run ...
  Unit style    : real
  Current step  : 4000
  Time step     : 1
Per MPI rank memory allocation (min/avg/max) = 4.577 | 4.578 | 4.579 Mbytes
Step Temp E_pair E_mol TotEng Press Volume Lx Ly Lz S/CPU 
    4000    292.35471   -10501.666            0   -9631.0833    5729.6145    781.53992    9.2112179    9.2112179    9.2112179            0 
    4100    298.58502   -10510.478            0   -9621.3426   -8673.2517    782.30075     9.214206     9.214206     9.214206    85.206356 
    4200    300.49168   -10507.097            0   -9612.2838   -3310.3659    782.71348    9.2158261    9.2158261    9.2158261    74.280586 
    4300    304.70253   -10510.364            0   -9603.0122    20758.628    782.90793    9.2165892    9.2165892    9.2165892    74.748323 
    4400      303.925   -10499.973            0   -9594.9367    6135.3555    783.82165    9.2201733    9.2201733    9.2201733    64.348166 
    4500    303.35377   -10491.073            0   -9587.7376    -10901.16    785.17953    9.2254945    9.2254945    9.2254945    80.241003 
    4600    297.22915    -10467.59            0   -9582.4921    1869.3512    786.01431    9.2287628    9.2287628    9.2287628    62.405419 
    4700    304.00643   -10482.758            0   -9577.4785   -14391.683     786.5416     9.230826     9.230826     9.230826    73.821037 
    4800    294.96354   -10452.342            0   -9573.9909   -13794.096    786.63316    9.2311842    9.2311842    9.2311842    79.088954 
    4900    305.08491   -10479.591            0   -9571.1003   -23923.848    785.97041     9.228591     9.228591     9.228591    81.519352 
    5000    306.53201   -10481.492            0    -9568.692    8863.5808    784.45797    9.2226677    9.2226677    9.2226677    70.383423 
Loop time of 13.5269 on 16 procs for 1000 steps with 1000 atoms

Performance: 6.387 ns/day, 3.757 hours/ns, 73.927 timesteps/s
94.8% CPU use with 16 MPI tasks x no OpenMP threads

MPI task timing breakdown:
Section |  min time  |  avg time  |  max time  |%varavg| %total
---------------------------------------------------------------
Pair    | 1.6241     | 1.7346     | 1.8377     |   3.8 | 12.82
Neigh   | 0.58224    | 0.60504    | 0.62727    |   1.3 |  4.47
Comm    | 0.40446    | 0.52956    | 0.66257    |   8.2 |  3.91
Output  | 7.3836     | 7.5895     | 10.63      |  28.5 | 56.11
Modify  | 0.020105   | 3.0614     | 3.2673     |  44.9 | 22.63
Other   |            | 0.006902   |            |       |  0.05

Nlocal:    62.5 ave 67 max 59 min
Histogram: 3 1 3 0 0 3 1 4 0 1
Nghost:    1856.19 ave 1877 max 1832 min
Histogram: 1 1 1 1 3 1 4 1 2 1
Neighs:    0 ave 0 max 0 min
Histogram: 16 0 0 0 0 0 0 0 0 0
FullNghs:  18818.6 ave 20326 max 17757 min
Histogram: 4 0 3 0 3 1 0 4 0 1

Total # of neighbors = 301098
Ave neighs/atom = 301.098
Neighbor list builds = 1000
Dangerous builds not checked
Setting up Verlet run ...
  Unit style    : real
  Current step  : 5000
  Time step     : 1
Per MPI rank memory allocation (min/avg/max) = 4.577 | 4.578 | 4.579 Mbytes
Step Temp E_pair E_mol TotEng Press Volume Lx Ly Lz S/CPU 
    5000    306.53201   -10481.492            0    -9568.692    8863.5808    784.45797    9.2226677    9.2226677    9.2226677            0 
    5100    303.16865   -10468.973            0   -9566.1888   -4534.8664    783.13425    9.2174772    9.2174772    9.2174772    80.986949 
    5200     309.6688   -10487.591            0     -9565.45    11811.122    782.09375    9.2133932    9.2133932    9.2133932    89.124018 
    5300     302.5609   -10466.481            0   -9565.5065    11520.013    781.59453    9.2114324    9.2114324    9.2114324    61.319639 
    5400    298.63111   -10457.746            0   -9568.4738   -3902.2829    781.22518    9.2099812    9.2099812    9.2099812    80.550177 
    5500    307.91611   -10491.393            0   -9574.4712    4066.3192     780.8128    9.2083604    9.2083604    9.2083604    68.167263 
    5600     305.9772   -10493.856            0   -9582.7084    10672.188    780.54576    9.2073105    9.2073105    9.2073105    61.282799 
    5700    303.96074   -10498.521            0   -9593.3776   -2020.2905    780.65696    9.2077477    9.2077477    9.2077477    52.948094 
    5800    296.20763   -10486.761            0   -9604.7052   -915.66549    780.94453    9.2088782    9.2088782    9.2088782    54.902251 
    5900    305.51207   -10527.732            0   -9617.9695    7422.8697    781.35916    9.2105077    9.2105077    9.2105077    50.037238 
    6000    298.41942   -10517.063            0    -9628.421    3886.9674    782.33293    9.2143323    9.2143323    9.2143323    65.300052 
Loop time of 15.5678 on 16 procs for 1000 steps with 1000 atoms

Performance: 5.550 ns/day, 4.324 hours/ns, 64.235 timesteps/s
94.6% CPU use with 16 MPI tasks x no OpenMP threads

MPI task timing breakdown:
Section |  min time  |  avg time  |  max time  |%varavg| %total
---------------------------------------------------------------
Pair    | 1.6621     | 1.7498     | 1.8761     |   4.4 | 11.24
Neigh   | 0.57875    | 0.60612    | 0.63632    |   1.8 |  3.89
Comm    | 0.41143    | 0.56753    | 0.68223    |   9.6 |  3.65
Output  | 8.6214     | 8.8741     | 12.616     |  32.4 | 57.00
Modify  | 0.020456   | 3.7633     | 4.0161     |  49.8 | 24.17
Other   |            | 0.006927   |            |       |  0.04

Nlocal:    62.5 ave 70 max 57 min
Histogram: 3 0 2 5 1 0 2 0 1 2
Nghost:    1845.56 ave 1863 max 1820 min
Histogram: 1 0 2 1 3 2 2 0 0 5
Neighs:    0 ave 0 max 0 min
Histogram: 16 0 0 0 0 0 0 0 0 0
FullNghs:  18863.9 ave 21241 max 17029 min
Histogram: 3 0 3 3 2 1 0 1 2 1

Total # of neighbors = 301822
Ave neighs/atom = 301.822
Neighbor list builds = 1000
Dangerous builds not checked
Setting up Verlet run ...
  Unit style    : real
  Current step  : 6000
  Time step     : 1
Per MPI rank memory allocation (min/avg/max) = 4.577 | 4.578 | 4.579 Mbytes
Step Temp E_pair E_mol TotEng Press Volume Lx Ly Lz S/CPU 
    6000    298.41942   -10517.063            0    -9628.421    3886.9674    782.33293    9.2143323    9.2143323    9.2143323            0 
    6100    306.64051   -10550.219            0   -9637.0963    13196.262    783.66255    9.2195494    9.2195494    9.2195494     45.49369 
    6200    296.79698   -10526.668            0   -9642.8569   -9974.3978    785.68989     9.227493     9.227493     9.227493    45.677637 
    6300    297.99868   -10535.736            0   -9648.3473   -10019.801    787.62465     9.235061     9.235061     9.235061    55.080272 
    6400    297.27629   -10536.011            0   -9650.7725   -14820.286    789.12934    9.2409381    9.2409381    9.2409381    51.472155 
    6500    290.57727   -10516.435            0   -9651.1451   -14721.486    789.71957    9.2432415    9.2432415    9.2432415    63.470212 
    6600    304.93991   -10560.168            0   -9652.1089   -3569.8902    789.24878    9.2414044    9.2414044    9.2414044    38.480659 
    6700    294.19705   -10526.283            0   -9650.2146    -9306.274    788.13303    9.2370475    9.2370475    9.2370475    53.299032 
    6800     302.0475   -10547.124            0   -9647.6784   -1027.8104    786.46732    9.2305354    9.2305354    9.2305354    62.185146 
    6900     289.1438   -10503.561            0   -9642.5403    10705.623    784.72617    9.2237186    9.2237186    9.2237186    53.062556 
    7000     286.1479   -10491.278            0   -9639.1789     9408.009     783.7006    9.2196987    9.2196987    9.2196987    53.184514 
Loop time of 19.5691 on 16 procs for 1000 steps with 1000 atoms

Performance: 4.415 ns/day, 5.436 hours/ns, 51.101 timesteps/s
94.4% CPU use with 16 MPI tasks x no OpenMP threads

MPI task timing breakdown:
Section |  min time  |  avg time  |  max time  |%varavg| %total
---------------------------------------------------------------
Pair    | 1.574      | 1.7197     | 1.8254     |   4.5 |  8.79
Neigh   | 0.58615    | 0.6049     | 0.63058    |   1.6 |  3.09
Comm    | 0.43053    | 0.5546     | 0.71905    |   9.4 |  2.83
Output  | 11.331     | 11.667     | 16.662     |  37.8 | 59.62
Modify  | 0.020434   | 5.0158     | 5.3522     |  57.6 | 25.63
Other   |            | 0.006886   |            |       |  0.04

Nlocal:    62.5 ave 68 max 59 min
Histogram: 3 2 1 3 1 2 1 2 0 1
Nghost:    1854.25 ave 1866 max 1847 min
Histogram: 2 4 2 0 1 4 1 0 1 1
Neighs:    0 ave 0 max 0 min
Histogram: 16 0 0 0 0 0 0 0 0 0
FullNghs:  18827.4 ave 20796 max 17656 min
Histogram: 3 3 2 2 0 2 1 2 0 1

Total # of neighbors = 301238
Ave neighs/atom = 301.238
Neighbor list builds = 1000
Dangerous builds not checked
Setting up Verlet run ...
  Unit style    : real
  Current step  : 7000
  Time step     : 1
Per MPI rank memory allocation (min/avg/max) = 4.577 | 4.578 | 4.579 Mbytes
Step Temp E_pair E_mol TotEng Press Volume Lx Ly Lz S/CPU 
    7000     286.1479   -10491.278            0   -9639.1789     9408.009     783.7006    9.2196987    9.2196987    9.2196987            0 
    7100      293.593     -10508.8            0   -9634.5305    84.362272    783.39155    9.2184866    9.2184866    9.2184866       59.046 
    7200     291.6547   -10499.099            0   -9630.6013    5237.9558    783.28185    9.2180563    9.2180563    9.2180563    52.299649 
    7300    286.98467   -10477.426            0   -9622.8346   -3926.3525    783.39014     9.218481     9.218481     9.218481    56.017329 
    7400    300.70769   -10513.092            0   -9617.6359   -2993.5271    783.38381    9.2184562    9.2184562    9.2184562    48.472182 
    7500    296.61634   -10493.421            0    -9610.148    -5167.948    783.38264    9.2184516    9.2184516    9.2184516     59.78343 
    7600    297.28366   -10490.014            0   -9604.7538   -3227.3531    783.20191    9.2177427    9.2177427    9.2177427    52.078456 
    7700    289.06129   -10459.271            0   -9598.4956   -7226.1767     782.8988    9.2165534    9.2165534    9.2165534    55.787928 
    7800    304.34666   -10502.863            0   -9596.5703   -1601.1573    782.33096    9.2143245    9.2143245    9.2143245    70.285084 
    7900    301.78538   -10493.928            0   -9595.2622   -10680.113    781.54342    9.2112316    9.2112316    9.2112316    57.260608 
    8000    303.03944   -10496.802            0    -9594.402    8444.6552    780.52381    9.2072242    9.2072242    9.2072242    63.273825 
Loop time of 17.5889 on 16 procs for 1000 steps with 1000 atoms

Performance: 4.912 ns/day, 4.886 hours/ns, 56.854 timesteps/s
94.5% CPU use with 16 MPI tasks x no OpenMP threads

MPI task timing breakdown:
Section |  min time  |  avg time  |  max time  |%varavg| %total
---------------------------------------------------------------
Pair    | 1.6578     | 1.7403     | 1.9025     |   4.7 |  9.89
Neigh   | 0.58743    | 0.60724    | 0.65903    |   2.0 |  3.45
Comm    | 0.37075    | 0.58451    | 0.68605    |   9.9 |  3.32
Output  | 9.6611     | 9.9746     | 14.629     |  38.0 | 56.71
Modify  | 0.020539   | 4.6753     | 4.9888     |  55.6 | 26.58
Other   |            | 0.006924   |            |       |  0.04

Nlocal:    62.5 ave 68 max 54 min
Histogram: 1 0 1 0 2 3 3 3 1 2
Nghost:    1851.31 ave 1868 max 1837 min
Histogram: 1 2 1 0 5 4 1 0 1 1
Neighs:    0 ave 0 max 0 min
Histogram: 16 0 0 0 0 0 0 0 0 0
FullNghs:  18897.9 ave 20745 max 16402 min
Histogram: 1 1 0 1 3 4 1 2 1 2

Total # of neighbors = 302366
Ave neighs/atom = 302.366
Neighbor list builds = 1000
Dangerous builds not checked
Setting up Verlet run ...
  Unit style    : real
  Current step  : 8000
  Time step     : 1
Per MPI rank memory allocation (min/avg/max) = 4.577 | 4.578 | 4.579 Mbytes
Step Temp E_pair E_mol TotEng Press Volume Lx Ly Lz S/CPU 
    8000    303.03944   -10496.802            0    -9594.402    8444.6552    780.52381    9.2072242    9.2072242    9.2072242            0 
    8100    301.18727   -10491.509            0   -9594.6245   -16575.826     780.1529    9.2057655    9.2057655    9.2057655    72.310194 
    8200    291.61149   -10463.495            0   -9595.1257   -7542.8214    779.82058    9.2044582    9.2044582    9.2044582     63.27775 
    8300    306.40255    -10510.11            0   -9597.6953    11684.055    779.82243    9.2044655    9.2044655    9.2044655    70.218207 
    8400    300.24495   -10492.234            0   -9598.1553   -3032.8909    780.42613    9.2068401    9.2068401    9.2068401    74.924834 
    8500    307.44868   -10515.777            0   -9600.2469   -1946.7441    781.36114    9.2105155    9.2105155    9.2105155    62.917047 
    8600    294.41488   -10477.851            0   -9601.1338   -1464.0821    782.55509    9.2152044    9.2152044    9.2152044    50.193116 
    8700    296.19157   -10485.334            0   -9603.3262   -8344.4315    783.83737     9.220235     9.220235     9.220235    66.115569 
    8800    295.24295   -10484.391            0   -9605.2083   -10851.853     785.1456    9.2253617    9.2253617    9.2253617    62.188517 
    8900    291.29285   -10473.978            0   -9606.5574   -2334.9819    785.79438     9.227902     9.227902     9.227902    66.193577 
    9000    289.52431   -10469.261            0   -9607.1075   -5093.0194    785.63688    9.2272854    9.2272854    9.2272854    63.593752 
Loop time of 15.5075 on 16 procs for 1000 steps with 1000 atoms

Performance: 5.571 ns/day, 4.308 hours/ns, 64.485 timesteps/s
94.6% CPU use with 16 MPI tasks x no OpenMP threads

MPI task timing breakdown:
Section |  min time  |  avg time  |  max time  |%varavg| %total
---------------------------------------------------------------
Pair    | 1.679      | 1.7469     | 1.8773     |   4.4 | 11.26
Neigh   | 0.58994    | 0.60608    | 0.64681    |   1.8 |  3.91
Comm    | 0.41217    | 0.58333    | 0.66736    |   9.4 |  3.76
Output  | 8.7482     | 8.9882     | 12.543     |  30.6 | 57.96
Modify  | 0.020695   | 3.5761     | 3.8164     |  48.5 | 23.06
Other   |            | 0.006917   |            |       |  0.04

Nlocal:    62.5 ave 70 max 56 min
Histogram: 2 0 4 2 1 2 1 2 1 1
Nghost:    1861.06 ave 1882 max 1846 min
Histogram: 3 2 1 3 1 1 2 0 2 1
Neighs:    0 ave 0 max 0 min
Histogram: 16 0 0 0 0 0 0 0 0 0
FullNghs:  18789.5 ave 21076 max 16774 min
Histogram: 2 0 4 2 1 2 2 0 2 1

Total # of neighbors = 300632
Ave neighs/atom = 300.632
Neighbor list builds = 1000
Dangerous builds not checked
Setting up Verlet run ...
  Unit style    : real
  Current step  : 9000
  Time step     : 1
Per MPI rank memory allocation (min/avg/max) = 4.577 | 4.578 | 4.579 Mbytes
Step Temp E_pair E_mol TotEng Press Volume Lx Ly Lz S/CPU 
    9000    289.52431   -10469.261            0   -9607.1075   -5093.0194    785.63688    9.2272854    9.2272854    9.2272854            0 
    9100    297.18279   -10492.402            0   -9607.4421   -11305.357    785.26739    9.2258386    9.2258386    9.2258386    49.968944 
    9200    308.12313   -10524.998            0   -9607.4597     868.4693    784.61424      9.22328      9.22328      9.22328    75.679416 
    9300    288.85515   -10464.406            0   -9604.2446    5934.7184    783.79809    9.2200809    9.2200809    9.2200809     55.21932 
    9400    297.17686   -10487.203            0   -9602.2611    1412.6972    783.23966    9.2178907    9.2178907    9.2178907    49.820299 
    9500    294.79783   -10474.871            0    -9597.013    4853.8777    783.16711    9.2176061    9.2176061    9.2176061    76.837903 
    9600    301.34505   -10487.966            0   -9590.6116    3060.5215    783.52089    9.2189939    9.2189939    9.2189939    48.896824 
    9700    298.46631   -10470.833            0    -9582.051    4976.0751    784.09999    9.2212646    9.2212646    9.2212646    61.388933 
    9800    296.79698   -10453.173            0   -9569.3625   -4280.7401    784.88029    9.2243224    9.2243224    9.2243224    61.445243 
    9900    300.90773   -10452.546            0   -9556.4943     5565.156     785.7983    9.2279173    9.2279173    9.2279173     54.34965 
   10000    295.94899   -10423.641            0    -9542.355     13341.24     787.0567    9.2328407    9.2328407    9.2328407    70.303353 
Loop time of 17.0061 on 16 procs for 1000 steps with 1000 atoms

Performance: 5.081 ns/day, 4.724 hours/ns, 58.802 timesteps/s
94.7% CPU use with 16 MPI tasks x no OpenMP threads

MPI task timing breakdown:
Section |  min time  |  avg time  |  max time  |%varavg| %total
---------------------------------------------------------------
Pair    | 1.6476     | 1.7496     | 1.981      |   5.5 | 10.29
Neigh   | 0.58476    | 0.60998    | 0.68595    |   2.8 |  3.59
Comm    | 0.45171    | 0.75844    | 0.88716    |  10.8 |  4.46
Output  | 9.3625     | 9.6464     | 13.858     |  35.0 | 56.72
Modify  | 0.021694   | 4.2348     | 4.5191     |  52.9 | 24.90
Other   |            | 0.006966   |            |       |  0.04

Nlocal:    62.5 ave 69 max 56 min
Histogram: 1 2 1 3 2 1 1 2 2 1
Nghost:    1846.38 ave 1871 max 1817 min
Histogram: 1 0 4 0 2 1 3 2 2 1
Neighs:    0 ave 0 max 0 min
Histogram: 16 0 0 0 0 0 0 0 0 0
FullNghs:  18772.1 ave 20690 max 16820 min
Histogram: 1 2 1 2 3 1 1 1 3 1

Total # of neighbors = 300354
Ave neighs/atom = 300.354
Neighbor list builds = 1000
Dangerous builds not checked
Setting up Verlet run ...
  Unit style    : real
  Current step  : 10000
  Time step     : 1
Per MPI rank memory allocation (min/avg/max) = 4.577 | 4.578 | 4.579 Mbytes
Step Temp E_pair E_mol TotEng Press Volume Lx Ly Lz S/CPU 
   10000    295.94899   -10423.641            0    -9542.355     13341.24     787.0567    9.2328407    9.2328407    9.2328407            0 
   10100    304.94687   -10439.226            0   -9531.1458    -3888.663    788.79608    9.2396371    9.2396371    9.2396371    61.277759 
   10200    300.88549   -10416.718            0   -9520.7323   -1850.9585    790.34137    9.2456668    9.2456668    9.2456668    55.965624 
   10300    300.66595   -10409.345            0   -9514.0128    3137.5625    792.01473    9.2521874    9.2521874    9.2521874    61.313421 
   10400    317.91639    -10457.44            0   -9510.7388   -4566.6531     793.5205    9.2580471    9.2580471    9.2580471    49.533102 
   10500     311.1747   -10435.257            0   -9508.6321    -6377.114    794.70911    9.2626673    9.2626673    9.2626673    55.408637 
   10600     307.7958   -10425.239            0   -9508.6758   -13499.574     795.0762    9.2640932    9.2640932    9.2640932    48.533227 
   10700    311.60381   -10439.638            0    -9511.735   -11470.768     794.3401    9.2612334    9.2612334    9.2612334    53.915936 
   10800     309.0435   -10436.529            0   -9516.2503   -13441.769     792.7453    9.2550313    9.2550313    9.2550313    54.283122 
   10900    306.98897   -10437.006            0   -9522.8455   -7360.8415    790.35436    9.2457175    9.2457175    9.2457175    59.549838 
   11000    301.54247   -10427.975            0    -9530.033    8195.0278    787.28509    9.2337336    9.2337336    9.2337336    44.017875 
Loop time of 18.5818 on 16 procs for 1000 steps with 1000 atoms

Performance: 4.650 ns/day, 5.162 hours/ns, 53.816 timesteps/s
94.5% CPU use with 16 MPI tasks x no OpenMP threads

MPI task timing breakdown:
Section |  min time  |  avg time  |  max time  |%varavg| %total
---------------------------------------------------------------
Pair    | 1.6215     | 1.7057     | 1.8461     |   4.0 |  9.18
Neigh   | 0.58443    | 0.6031     | 0.65104    |   1.9 |  3.25
Comm    | 0.39536    | 0.58347    | 0.68625    |   8.6 |  3.14
Output  | 10.578     | 10.899     | 15.661     |  37.2 | 58.65
Modify  | 0.020837   | 4.784      | 5.1052     |  56.2 | 25.75
Other   |            | 0.00688    |            |       |  0.04

Nlocal:    62.5 ave 71 max 57 min
Histogram: 2 1 5 1 2 1 2 0 1 1
Nghost:    1835.25 ave 1854 max 1824 min
Histogram: 3 2 2 2 2 2 1 0 0 2
Neighs:    0 ave 0 max 0 min
Histogram: 16 0 0 0 0 0 0 0 0 0
FullNghs:  18766 ave 21586 max 17179 min
Histogram: 2 3 4 1 2 1 1 1 0 1

Total # of neighbors = 300256
Ave neighs/atom = 300.256
Neighbor list builds = 1000
Dangerous builds not checked
Setting up Verlet run ...
  Unit style    : real
  Current step  : 11000
  Time step     : 1
Per MPI rank memory allocation (min/avg/max) = 4.577 | 4.578 | 4.579 Mbytes
Step Temp E_pair E_mol TotEng Press Volume Lx Ly Lz S/CPU 
   11000    301.54247   -10427.975            0    -9530.033    8195.0278    787.28509    9.2337336    9.2337336    9.2337336            0 
   11100    301.84629   -10438.087            0     -9539.24    24162.503    784.46577    9.2226982    9.2226982    9.2226982    59.326456 
   11200     306.5743   -10461.733            0   -9548.8074    11861.469    782.85787    9.2163928    9.2163928    9.2163928    49.156035 
   11300    311.62593   -10487.666            0   -9559.6975   -2154.3832    782.47058    9.2148727    9.2148727    9.2148727    51.797994 
   11400    300.48711   -10463.114            0   -9568.3143    14077.113    782.29912    9.2141996    9.2141996    9.2141996    55.596642 
   11500    297.89073    -10463.74            0   -9576.6726    8814.4498    782.38978    9.2145555    9.2145555    9.2145555    49.013798 
   11600    310.59028    -10509.54            0   -9584.6555    781.31725    782.94475    9.2167337    9.2167337    9.2167337      54.6004 
   11700    311.96837   -10517.722            0   -9588.7334    -424.0915    783.91349    9.2205334    9.2205334    9.2205334    54.598869 
   11800    297.81128    -10479.55            0   -9592.7192   -4404.5573    784.97257    9.2246839    9.2246839    9.2246839    56.686266 
   11900    297.95165   -10484.103            0   -9596.8535   -11244.896    785.74544    9.2277104    9.2277104    9.2277104    60.797763 
   12000     292.7523   -10471.206            0     -9599.44   -8658.0684    786.16079     9.229336     9.229336     9.229336     50.60317 
Loop time of 18.5375 on 16 procs for 1000 steps with 1000 atoms

Performance: 4.661 ns/day, 5.149 hours/ns, 53.945 timesteps/s
94.8% CPU use with 16 MPI tasks x no OpenMP threads

MPI task timing breakdown:
Section |  min time  |  avg time  |  max time  |%varavg| %total
---------------------------------------------------------------
Pair    | 1.6675     | 1.8484     | 2.6612     |  22.3 |  9.97
Neigh   | 0.5909     | 0.63552    | 0.86703    |  10.9 |  3.43
Comm    | 0.33482    | 1.3786     | 1.6033     |  33.2 |  7.44
Output  | 10.007     | 10.3       | 14.643     |  34.9 | 55.56
Modify  | 0.023059   | 4.368      | 4.6625     |  53.7 | 23.56
Other   |            | 0.007076   |            |       |  0.04

Nlocal:    62.5 ave 66 max 56 min
Histogram: 1 0 0 2 0 2 0 4 4 3
Nghost:    1848.69 ave 1863 max 1823 min
Histogram: 1 0 0 2 1 2 2 3 1 4
Neighs:    0 ave 0 max 0 min
Histogram: 16 0 0 0 0 0 0 0 0 0
FullNghs:  18770.9 ave 20061 max 16600 min
Histogram: 1 0 0 2 2 0 3 5 2 1

Total # of neighbors = 300334
Ave neighs/atom = 300.334
Neighbor list builds = 1000
Dangerous builds not checked
Setting up Verlet run ...
  Unit style    : real
  Current step  : 12000
  Time step     : 1
Per MPI rank memory allocation (min/avg/max) = 4.577 | 4.578 | 4.579 Mbytes
Step Temp E_pair E_mol TotEng Press Volume Lx Ly Lz S/CPU 
   12000     292.7523   -10471.206            0     -9599.44   -8658.0684    786.16079     9.229336     9.229336     9.229336            0 
   12100    297.38071   -10488.105            0   -9602.5564   -11231.338    786.27316    9.2297758    9.2297758    9.2297758    58.302935 
   12200    290.71716   -10468.536            0   -9602.8296    3588.2935     786.0481    9.2288951    9.2288951    9.2288951    59.746713 
   12300    298.07363   -10492.364            0   -9604.7517   -4488.4451    785.80219    9.2279325    9.2279325    9.2279325     60.75232 
   12400    301.96853   -10505.415            0   -9606.2045   -8387.2788    785.31513    9.2260256    9.2260256    9.2260256    70.392525 
   12500    308.10802    -10524.35            0   -9606.8574     1075.011    784.25613    9.2218766    9.2218766    9.2218766    67.066124 
   12600     299.9204   -10501.917            0   -9608.8056    5331.2764    783.11177     9.217389     9.217389     9.217389    55.405243 
   12700    297.99883   -10497.362            0   -9609.9722    11129.843    781.88167    9.2125603    9.2125603    9.2125603    73.188853 
   12800    291.84086    -10482.84            0   -9613.7881   -3295.7057    780.74766    9.2081043    9.2081043    9.2081043    86.291885 
   12900    296.54545   -10499.856            0   -9616.7943    8167.6322    779.96151    9.2050127    9.2050127    9.2050127    45.440997 
   13000    305.56319   -10531.375            0   -9621.4596    9654.3364    779.71802    9.2040547    9.2040547    9.2040547    77.121367 
Loop time of 15.774 on 16 procs for 1000 steps with 1000 atoms

Performance: 5.477 ns/day, 4.382 hours/ns, 63.395 timesteps/s
94.8% CPU use with 16 MPI tasks x no OpenMP threads

MPI task timing breakdown:
Section |  min time  |  avg time  |  max time  |%varavg| %total
---------------------------------------------------------------
Pair    | 1.6218     | 1.7734     | 2.0567     |   8.1 | 11.24
Neigh   | 0.58839    | 0.61702    | 0.71295    |   4.3 |  3.91
Comm    | 0.44561    | 0.8247     | 1.0053     |  15.5 |  5.23
Output  | 8.8775     | 9.1085     | 12.53      |  29.3 | 57.74
Modify  | 0.021546   | 3.4434     | 3.6754     |  47.6 | 21.83
Other   |            | 0.006984   |            |       |  0.04

Nlocal:    62.5 ave 67 max 56 min
Histogram: 1 0 1 2 3 0 2 3 2 2
Nghost:    1867.38 ave 1895 max 1834 min
Histogram: 1 0 1 3 2 2 2 2 2 1
Neighs:    0 ave 0 max 0 min
Histogram: 16 0 0 0 0 0 0 0 0 0
FullNghs:  18929.6 ave 20536 max 16862 min
Histogram: 1 0 1 2 3 2 3 0 2 2

Total # of neighbors = 302874
Ave neighs/atom = 302.874
Neighbor list builds = 1000
Dangerous builds not checked
Setting up Verlet run ...
  Unit style    : real
  Current step  : 13000
  Time step     : 1
Per MPI rank memory allocation (min/avg/max) = 4.577 | 4.578 | 4.579 Mbytes
Step Temp E_pair E_mol TotEng Press Volume Lx Ly Lz S/CPU 
   13000    305.56319   -10531.375            0   -9621.4596    9654.3364    779.71802    9.2040547    9.2040547    9.2040547            0 
   13100    300.66553   -10523.135            0   -9627.8042   -2372.0537    780.17677    9.2058594    9.2058594    9.2058594    74.042114 
   13200    294.92222   -10514.027            0   -9635.7988    9229.3821     781.1439    9.2096618    9.2096618    9.2096618    64.183388 
   13300    292.35461   -10514.772            0   -9644.1898     1146.006    782.41014    9.2146354    9.2146354    9.2146354    82.578973 
   13400    299.61938   -10545.886            0   -9653.6705    4175.6139    783.89069     9.220444     9.220444     9.220444    94.478309 
   13500    295.98753   -10545.148            0   -9663.7473   -3470.7368    785.57147    9.2270293    9.2270293    9.2270293    84.080174 
   13600    292.26554   -10541.884            0   -9671.5667   -4123.8114    786.97715    9.2325296    9.2325296    9.2325296    60.339173 
   13700    287.10615   -10532.933            0   -9677.9794   -3545.3392    787.90906    9.2361724    9.2361724    9.2361724    79.844619 
   13800    292.91477   -10555.223            0   -9682.9726   -22466.641    788.15547    9.2371351    9.2371351    9.2371351    92.515651 
   13900    280.43737   -10519.461            0   -9684.3667     8894.357    787.13858    9.2331608    9.2331608    9.2331608    57.855459 
   14000    279.04026    -10514.68            0   -9683.7459   -21030.486    785.69016     9.227494     9.227494     9.227494    88.900326 
Loop time of 13.2113 on 16 procs for 1000 steps with 1000 atoms

Performance: 6.540 ns/day, 3.670 hours/ns, 75.693 timesteps/s
94.8% CPU use with 16 MPI tasks x no OpenMP threads

MPI task timing breakdown:
Section |  min time  |  avg time  |  max time  |%varavg| %total
---------------------------------------------------------------
Pair    | 1.6522     | 1.7315     | 1.9445     |   5.3 | 13.11
Neigh   | 0.58673    | 0.60564    | 0.66579    |   2.3 |  4.58
Comm    | 0.32289    | 0.59528    | 0.69333    |  11.2 |  4.51
Output  | 6.9388     | 7.1485     | 10.251     |  30.0 | 54.11
Modify  | 0.02033    | 3.1235     | 3.3334     |  45.3 | 23.64
Other   |            | 0.006901   |            |       |  0.05

Nlocal:    62.5 ave 67 max 58 min
Histogram: 1 2 1 2 3 1 2 0 3 1
Nghost:    1843.62 ave 1864 max 1826 min
Histogram: 1 2 2 0 5 1 3 0 1 1
Neighs:    0 ave 0 max 0 min
Histogram: 16 0 0 0 0 0 0 0 0 0
FullNghs:  18775.6 ave 20099 max 17434 min
Histogram: 2 1 1 2 3 1 2 0 1 3

Total # of neighbors = 300410
Ave neighs/atom = 300.41
Neighbor list builds = 1000
Dangerous builds not checked
Setting up Verlet run ...
  Unit style    : real
  Current step  : 14000
  Time step     : 1
Per MPI rank memory allocation (min/avg/max) = 4.577 | 4.578 | 4.579 Mbytes
Step Temp E_pair E_mol TotEng Press Volume Lx Ly Lz S/CPU 
   14000    279.04026    -10514.68            0   -9683.7459   -21030.486    785.69016     9.227494     9.227494     9.227494            0 
   14100    291.24024   -10546.947            0   -9679.6829   -648.40611    783.47825    9.2188266    9.2188266    9.2188266    76.608531 
   14200    288.21172    -10529.64            0   -9671.3948    12446.542    780.88522    9.2086451    9.2086451    9.2086451    84.845235 
   14300    285.91956   -10510.427            0   -9659.0071    16873.854    778.39449    9.1988439    9.1988439    9.1988439    68.300074 
   14400    298.84363   -10534.103            0   -9644.1974    13546.617    776.45836    9.1912107    9.1912107    9.1912107    78.135419 
   14500    292.75861   -10500.168            0   -9628.3833    19237.338     775.2212    9.1863266    9.1863266    9.1863266    55.742917 
   14600     299.0275   -10506.128            0   -9615.6747    9709.4693     774.8714    9.1849447    9.1849447    9.1849447    57.563206 
   14700    308.04273   -10524.386            0   -9607.0874    4509.2853    775.20139    9.1862483    9.1862483    9.1862483    68.875011 
   14800    302.70163   -10502.808            0   -9601.4142    4149.8812    775.71688    9.1882841    9.1882841    9.1882841    54.862177 
   14900    312.51922   -10529.819            0   -9599.1903    5349.9669    776.37152    9.1908681    9.1908681    9.1908681    75.663872 
   15000    298.92762   -10487.615            0   -9597.4601   -1807.1319    777.24627    9.1943186    9.1943186    9.1943186    66.341957 
Loop time of 14.8627 on 16 procs for 1000 steps with 1000 atoms

Performance: 5.813 ns/day, 4.129 hours/ns, 67.282 timesteps/s
94.6% CPU use with 16 MPI tasks x no OpenMP threads

MPI task timing breakdown:
Section |  min time  |  avg time  |  max time  |%varavg| %total
---------------------------------------------------------------
Pair    | 1.6735     | 1.7606     | 1.8341     |   3.0 | 11.85
Neigh   | 0.58471    | 0.60602    | 0.62144    |   1.3 |  4.08
Comm    | 0.38971    | 0.47878    | 0.58722    |   7.0 |  3.22
Output  | 8.227      | 8.4651     | 11.99      |  31.3 | 56.95
Modify  | 0.020281   | 3.5453     | 3.7836     |  48.3 | 23.85
Other   |            | 0.00697    |            |       |  0.05

Nlocal:    62.5 ave 68 max 58 min
Histogram: 2 1 2 3 0 3 1 1 0 3
Nghost:    1871.19 ave 1907 max 1842 min
Histogram: 1 3 1 3 1 3 2 0 0 2
Neighs:    0 ave 0 max 0 min
Histogram: 16 0 0 0 0 0 0 0 0 0
FullNghs:  18969.5 ave 20733 max 17611 min
Histogram: 3 2 1 2 3 1 1 0 0 3

Total # of neighbors = 303512
Ave neighs/atom = 303.512
Neighbor list builds = 1000
Dangerous builds not checked
Setting up Verlet run ...
  Unit style    : real
  Current step  : 15000
  Time step     : 1
Per MPI rank memory allocation (min/avg/max) = 4.577 | 4.578 | 4.579 Mbytes
Step Temp E_pair E_mol TotEng Press Volume Lx Ly Lz S/CPU 
   15000    298.92762   -10487.615            0   -9597.4601   -1807.1319    777.24627    9.1943186    9.1943186    9.1943186            0 
   15100    309.05277   -10517.935            0   -9597.6289     1318.388    778.83245    9.2005688    9.2005688    9.2005688    50.857963 
   15200    306.96538   -10511.227            0   -9597.1368    8837.2619    781.01982    9.2091741    9.2091741    9.2091741    70.123555 
   15300    308.67475   -10516.653            0   -9597.4718    4399.2757    783.80944    9.2201254    9.2201254    9.2201254    64.651209 
   15400    292.54403   -10468.071            0   -9596.9252   -9512.2701    787.27754    9.2337041    9.2337041    9.2337041    52.125778 
   15500    298.38247   -10487.943            0   -9599.4108   -4069.9621    790.42277    9.2459842    9.2459842    9.2459842    68.109837 
   15600    309.63487    -10522.03            0   -9599.9898   -22367.239    793.21655    9.2568648    9.2568648    9.2568648    61.500967 
   15700    300.54136   -10495.113            0   -9600.1522   -20427.472    794.95973    9.2636408    9.2636408    9.2636408    54.532663 
   15800    308.67252   -10520.133            0   -9600.9592   -11055.479    795.47593    9.2656455    9.2656455    9.2656455    62.468692 
   15900    299.76756   -10494.426            0    -9601.769   -17709.994    795.03175    9.2639206    9.2639206    9.2639206    58.889023 
   16000     293.6716   -10477.403            0   -9602.8993   -13591.948    793.44382    9.2577489    9.2577489    9.2577489    51.384946 
Loop time of 17.0305 on 16 procs for 1000 steps with 1000 atoms

Performance: 5.073 ns/day, 4.731 hours/ns, 58.718 timesteps/s
94.5% CPU use with 16 MPI tasks x no OpenMP threads

MPI task timing breakdown:
Section |  min time  |  avg time  |  max time  |%varavg| %total
---------------------------------------------------------------
Pair    | 1.6322     | 1.711      | 1.7886     |   3.3 | 10.05
Neigh   | 0.58593    | 0.60152    | 0.61687    |   1.2 |  3.53
Comm    | 0.37227    | 0.46264    | 0.55702    |   7.5 |  2.72
Output  | 9.4116     | 9.7155     | 14.228     |  37.4 | 57.05
Modify  | 0.02015    | 4.5329     | 4.8372     |  54.7 | 26.62
Other   |            | 0.006866   |            |       |  0.04

Nlocal:    62.5 ave 67 max 58 min
Histogram: 2 1 1 2 1 3 2 1 2 1
Nghost:    1845.19 ave 1860 max 1835 min
Histogram: 4 0 2 1 4 0 0 3 1 1
Neighs:    0 ave 0 max 0 min
Histogram: 16 0 0 0 0 0 0 0 0 0
FullNghs:  18593.6 ave 19836 max 17234 min
Histogram: 2 1 1 2 0 4 0 3 1 2

Total # of neighbors = 297498
Ave neighs/atom = 297.498
Neighbor list builds = 1000
Dangerous builds not checked
Setting up Verlet run ...
  Unit style    : real
  Current step  : 16000
  Time step     : 1
Per MPI rank memory allocation (min/avg/max) = 4.577 | 4.578 | 4.579 Mbytes
Step Temp E_pair E_mol TotEng Press Volume Lx Ly Lz S/CPU 
   16000     293.6716   -10477.403            0   -9602.8993   -13591.948    793.44382    9.2577489    9.2577489    9.2577489            0 
   16100    297.47764   -10489.556            0   -9603.7186   -2950.6713    790.79962    9.2474534    9.2474534    9.2474534    51.527525 
   16200    296.15451   -10484.969            0   -9603.0718    4271.6025    787.54725    9.2347584    9.2347584    9.2347584    60.537111 
   16300    296.65712   -10485.164            0   -9601.7696    4201.7746    784.22584    9.2217579    9.2217579    9.2217579     62.49691 
   16400    302.20102   -10500.386            0   -9600.4833     8036.428    781.42361    9.2107609    9.2107609    9.2107609    67.128659 
   16500    295.61418   -10476.842            0    -9596.553    11563.358    779.81372    9.2044312    9.2044312    9.2044312    60.693219 
   16600    308.20293   -10512.604            0   -9594.8283    28568.131    779.10245    9.2016319    9.2016319    9.2016319    60.587324 
   16700    303.61822   -10496.716            0   -9592.5923    11772.322    779.84978    9.2045731    9.2045731    9.2045731    72.886923 
   16800    299.12177   -10480.632            0   -9589.8981   -754.99935    781.55024    9.2112584    9.2112584    9.2112584    49.537041 
   16900    295.01798   -10466.018            0   -9587.5048   -1644.2515    783.36738    9.2183918    9.2183918    9.2183918    48.265985 
   17000    298.55768   -10473.335            0   -9584.2816    2455.5135    785.60143    9.2271466    9.2271466    9.2271466    56.558348 
Loop time of 17.2111 on 16 procs for 1000 steps with 1000 atoms

Performance: 5.020 ns/day, 4.781 hours/ns, 58.102 timesteps/s
94.5% CPU use with 16 MPI tasks x no OpenMP threads

MPI task timing breakdown:
Section |  min time  |  avg time  |  max time  |%varavg| %total
---------------------------------------------------------------
Pair    | 1.6669     | 1.7395     | 1.8302     |   2.9 | 10.11
Neigh   | 0.59514    | 0.60615    | 0.63633    |   1.2 |  3.52
Comm    | 0.40214    | 0.52289    | 0.6022     |   6.4 |  3.04
Output  | 9.8116     | 10.096     | 14.314     |  34.3 | 58.66
Modify  | 0.020584   | 4.2397     | 4.5243     |  52.9 | 24.63
Other   |            | 0.006904   |            |       |  0.04

Nlocal:    62.5 ave 67 max 59 min
Histogram: 1 4 1 2 0 3 2 1 0 2
Nghost:    1860.06 ave 1870 max 1848 min
Histogram: 2 1 1 2 1 1 3 0 2 3
Neighs:    0 ave 0 max 0 min
Histogram: 16 0 0 0 0 0 0 0 0 0
FullNghs:  18783.1 ave 20292 max 17628 min
Histogram: 1 4 1 1 3 2 1 1 0 2

Total # of neighbors = 300530
Ave neighs/atom = 300.53
Neighbor list builds = 1000
Dangerous builds not checked
Setting up Verlet run ...
  Unit style    : real
  Current step  : 17000
  Time step     : 1
Per MPI rank memory allocation (min/avg/max) = 4.577 | 4.578 | 4.579 Mbytes
Step Temp E_pair E_mol TotEng Press Volume Lx Ly Lz S/CPU 
   17000    298.55768   -10473.335            0   -9584.2816    2455.5135    785.60143    9.2271466    9.2271466    9.2271466            0 
   17100    302.74518   -10483.103            0   -9581.5795   -7367.4745    787.85094    9.2359453    9.2359453    9.2359453    97.638679 
   17200    297.11666   -10461.783            0     -9577.02   -26410.566    789.35409    9.2418154    9.2418154    9.2418154    88.066135 
   17300    303.15427    -10477.33            0   -9574.5886   -7718.2636    789.77613    9.2434621    9.2434621    9.2434621    62.207554 
   17400    304.57597   -10477.297            0   -9570.3215   -11827.198    789.94448    9.2441189    9.2441189    9.2441189    68.373165 
   17500    296.50251    -10449.22            0    -9566.286    4259.5692    789.33842    9.2417542    9.2417542    9.2417542    82.864935 
   17600    311.58665   -10490.292            0   -9562.4402    573.34008    788.37276    9.2379839    9.2379839    9.2379839    92.227563 
   17700    312.94843   -10488.963            0   -9557.0557    1592.8727    787.39279    9.2341547    9.2341547    9.2341547    58.718873 
   17800    307.79256   -10470.542            0   -9553.9881    4418.6683    786.25235    9.2296943    9.2296943    9.2296943    91.035153 
   17900    298.30867   -10439.659            0   -9551.3468    2459.4987    785.13154    9.2253066    9.2253066    9.2253066    90.143898 
   18000    303.75156   -10456.488            0   -9551.9679    198.49224    784.38531    9.2223829    9.2223829    9.2223829    78.955127 
Loop time of 12.6982 on 16 procs for 1000 steps with 1000 atoms

Performance: 6.804 ns/day, 3.527 hours/ns, 78.751 timesteps/s
94.8% CPU use with 16 MPI tasks x no OpenMP threads

MPI task timing breakdown:
Section |  min time  |  avg time  |  max time  |%varavg| %total
---------------------------------------------------------------
Pair    | 1.6322     | 1.7156     | 1.8282     |   2.9 | 13.51
Neigh   | 0.58459    | 0.60337    | 0.62328    |   1.1 |  4.75
Comm    | 0.3414     | 0.47418    | 0.57634    |   6.7 |  3.73
Output  | 6.5165     | 6.7292     | 9.8776     |  31.3 | 52.99
Modify  | 0.019829   | 3.169      | 3.3822     |  45.7 | 24.96
Other   |            | 0.006872   |            |       |  0.05

Nlocal:    62.5 ave 70 max 57 min
Histogram: 3 0 1 3 3 1 3 1 0 1
Nghost:    1857.88 ave 1875 max 1837 min
Histogram: 1 1 3 1 3 0 1 1 1 4
Neighs:    0 ave 0 max 0 min
Histogram: 16 0 0 0 0 0 0 0 0 0
FullNghs:  18817.2 ave 21274 max 17072 min
Histogram: 2 1 3 1 3 2 2 1 0 1

Total # of neighbors = 301076
Ave neighs/atom = 301.076
Neighbor list builds = 1000
Dangerous builds not checked
Setting up Verlet run ...
  Unit style    : real
  Current step  : 18000
  Time step     : 1
Per MPI rank memory allocation (min/avg/max) = 4.577 | 4.578 | 4.579 Mbytes
Step Temp E_pair E_mol TotEng Press Volume Lx Ly Lz S/CPU 
   18000    303.75156   -10456.488            0   -9551.9679    198.49224    784.38531    9.2223829    9.2223829    9.2223829            0 
   18100    303.71889   -10458.572            0   -9554.1487    9652.8711    783.87927    9.2203993    9.2203993    9.2203993    53.232125 
   18200     298.5508   -10447.356            0   -9558.3232   -2083.2257    783.64183    9.2194682    9.2194682    9.2194682    83.646773 
   18300    301.33563   -10464.667            0   -9567.3405    11393.397    783.29501    9.2181079    9.2181079    9.2181079    93.741328 
   18400    304.68391   -10483.532            0   -9576.2353    12164.574    783.42374    9.2186128    9.2186128    9.2186128    62.509579 
   18500    309.24631   -10508.208            0   -9587.3254    9669.1095    783.95804    9.2207081    9.2207081    9.2207081    75.142511 
   18600    297.12052   -10483.687            0    -9598.913   -5356.8696     784.7735    9.2239041    9.2239041    9.2239041    79.835335 
   18700    306.62159   -10524.715            0   -9611.6485    2324.1124    785.42467    9.2264545    9.2264545    9.2264545    64.264017 
   18800    300.63585   -10516.222            0   -9620.9802   -14473.027    786.39499    9.2302525    9.2302525    9.2302525    70.079203 
   18900     302.2192    -10529.68            0   -9629.7226   -6353.6588    787.05669    9.2328406    9.2328406    9.2328406    91.252079 
   19000     306.0777   -10547.715            0   -9636.2678   -861.72695    787.39441     9.234161     9.234161     9.234161    77.092494 
Loop time of 13.7 on 16 procs for 1000 steps with 1000 atoms

Performance: 6.307 ns/day, 3.806 hours/ns, 72.993 timesteps/s
94.6% CPU use with 16 MPI tasks x no OpenMP threads

MPI task timing breakdown:
Section |  min time  |  avg time  |  max time  |%varavg| %total
---------------------------------------------------------------
Pair    | 1.6746     | 1.7256     | 1.7798     |   2.6 | 12.60
Neigh   | 0.58841    | 0.60471    | 0.62331    |   1.0 |  4.41
Comm    | 0.38827    | 0.45614    | 0.52384    |   6.1 |  3.33
Output  | 7.6065     | 7.8143     | 10.886     |  28.4 | 57.04
Modify  | 0.02       | 3.0924     | 3.3003     |  45.1 | 22.57
Other   |            | 0.006867   |            |       |  0.05

Nlocal:    62.5 ave 68 max 57 min
Histogram: 3 2 1 1 1 1 0 4 0 3
Nghost:    1844.25 ave 1861 max 1828 min
Histogram: 2 1 0 1 3 4 2 2 0 1
Neighs:    0 ave 0 max 0 min
Histogram: 16 0 0 0 0 0 0 0 0 0
FullNghs:  18746.8 ave 20459 max 17015 min
Histogram: 2 2 2 1 1 1 1 3 0 3

Total # of neighbors = 299948
Ave neighs/atom = 299.948
Neighbor list builds = 1000
Dangerous builds not checked
Setting up Verlet run ...
  Unit style    : real
  Current step  : 19000
  Time step     : 1
Per MPI rank memory allocation (min/avg/max) = 4.577 | 4.578 | 4.579 Mbytes
Step Temp E_pair E_mol TotEng Press Volume Lx Ly Lz S/CPU 
   19000     306.0777   -10547.715            0   -9636.2678   -861.72695    787.39441     9.234161     9.234161     9.234161            0 
   19100    293.82752    -10515.65            0   -9640.6815    2732.3557    787.48398    9.2345111    9.2345111    9.2345111    62.724383 
   19200    303.81596   -10549.368            0   -9644.6564   -11679.033    787.12105    9.2330923    9.2330923    9.2330923    78.138788 
   19300    297.76462   -10531.634            0   -9644.9423   -8824.1269    786.30306    9.2298928    9.2298928    9.2298928    75.344328 
   19400    290.71037   -10510.238            0   -9644.5525   -249.07975    785.20739    9.2256037    9.2256037    9.2256037    51.539142 
   19500    289.28536   -10504.913            0   -9643.4703     2426.274    783.83973    9.2202442    9.2202442    9.2202442    63.668625 
   19600    298.23605   -10528.993            0   -9640.8966    7371.4504     782.1435    9.2135886    9.2135886    9.2135886    53.385266 
   19700    298.73855   -10526.748            0   -9637.1553    17759.201    780.47033    9.2070139    9.2070139    9.2070139    56.369302 
   19800     302.9351   -10534.271            0   -9632.1821   -3014.4785    778.64748    9.1998404    9.1998404    9.1998404    63.599908 
   19900    288.83682   -10485.673            0   -9625.5664    -957.7447    776.84915    9.1927525    9.1927525    9.1927525    56.406788 
   20000     305.6355   -10530.012            0   -9619.8815    15217.333    775.45775    9.1872608    9.1872608    9.1872608    64.385938 
Loop time of 16.2577 on 16 procs for 1000 steps with 1000 atoms

Performance: 5.314 ns/day, 4.516 hours/ns, 61.509 timesteps/s
94.6% CPU use with 16 MPI tasks x no OpenMP threads

MPI task timing breakdown:
Section |  min time  |  avg time  |  max time  |%varavg| %total
---------------------------------------------------------------
Pair    | 1.636      | 1.7437     | 1.8409     |   3.4 | 10.73
Neigh   | 0.58269    | 0.60641    | 0.64517    |   1.5 |  3.73
Comm    | 0.44735    | 0.58299    | 0.71393    |   7.2 |  3.59
Output  | 8.4647     | 8.7695     | 13.296     |  39.5 | 53.94
Modify  | 0.020713   | 4.5482     | 4.8531     |  54.8 | 27.98
Other   |            | 0.0069     |            |       |  0.04

Nlocal:    62.5 ave 68 max 56 min
Histogram: 2 0 1 4 0 2 2 1 1 3
Nghost:    1870 ave 1893 max 1855 min
Histogram: 3 3 0 3 1 4 0 0 0 2
Neighs:    0 ave 0 max 0 min
Histogram: 16 0 0 0 0 0 0 0 0 0
FullNghs:  19052 ave 20803 max 16991 min
Histogram: 2 0 1 4 0 2 2 1 1 3

Total # of neighbors = 304832
Ave neighs/atom = 304.832
Neighbor list builds = 1000
Dangerous builds not checked
Setting up Verlet run ...
  Unit style    : real
  Current step  : 20000
  Time step     : 1
Per MPI rank memory allocation (min/avg/max) = 4.577 | 4.578 | 4.579 Mbytes
Step Temp E_pair E_mol TotEng Press Volume Lx Ly Lz S/CPU 
   20000     305.6355   -10530.012            0   -9619.8815    15217.333    775.45775    9.1872608    9.1872608    9.1872608            0 
   20100    293.83515   -10488.092            0   -9613.1011     18445.38    775.04767    9.1856411    9.1856411    9.1856411    65.082327 
   20200    295.80897   -10487.469            0      -9606.6    14954.228    775.60588    9.1878458    9.1878458    9.1878458    50.256844 
   20300     302.1159    -10500.27            0   -9600.6206    11264.133    777.01388    9.1934022    9.1934022    9.1934022    58.828353 
   20400    300.60407   -10489.482            0   -9594.3343   -10517.757    779.25559    9.2022348    9.2022348    9.2022348    64.874723 
   20500     311.7748   -10518.433            0   -9590.0204   -1226.4281    781.23344    9.2100137    9.2100137    9.2100137    66.588881 
   20600    313.16477   -10519.261            0   -9586.7096   -421.97164    783.32529    9.2182267    9.2182267    9.2182267    73.331412 
   20700    305.74727   -10493.561            0   -9583.0981   -17116.209     785.5204    9.2268294    9.2268294    9.2268294    59.128788 
   20800    305.64524   -10488.237            0   -9578.0772   -8995.3867    786.95718    9.2324515    9.2324515    9.2324515    54.544813 
   20900    303.41908    -10477.41            0   -9573.8794   -20761.525     787.7882    9.2357001    9.2357001    9.2357001    66.713476 
   21000     292.9026   -10439.746            0   -9567.5318   -1485.9918    787.74069    9.2355145    9.2355145    9.2355145     59.90222 
Loop time of 16.326 on 16 procs for 1000 steps with 1000 atoms

Performance: 5.292 ns/day, 4.535 hours/ns, 61.252 timesteps/s
94.6% CPU use with 16 MPI tasks x no OpenMP threads

MPI task timing breakdown:
Section |  min time  |  avg time  |  max time  |%varavg| %total
---------------------------------------------------------------
Pair    | 1.6753     | 1.7475     | 1.8069     |   2.6 | 10.70
Neigh   | 0.59421    | 0.60565    | 0.62135    |   0.9 |  3.71
Comm    | 0.41541    | 0.4819     | 0.56539    |   5.9 |  2.95
Output  | 9.3302     | 9.5915     | 13.463     |  32.3 | 58.75
Modify  | 0.020305   | 3.8925     | 4.154      |  50.7 | 23.84
Other   |            | 0.006958   |            |       |  0.04

Nlocal:    62.5 ave 67 max 59 min
Histogram: 1 3 1 3 0 4 2 0 0 2
Nghost:    1850.12 ave 1867 max 1830 min
Histogram: 2 1 0 2 2 1 2 1 3 2
Neighs:    0 ave 0 max 0 min
Histogram: 16 0 0 0 0 0 0 0 0 0
FullNghs:  18737.2 ave 20210 max 17625 min
Histogram: 1 4 0 2 4 3 0 0 0 2

Total # of neighbors = 299796
Ave neighs/atom = 299.796
Neighbor list builds = 1000
Dangerous builds not checked
Setting up Verlet run ...
  Unit style    : real
  Current step  : 21000
  Time step     : 1
Per MPI rank memory allocation (min/avg/max) = 4.577 | 4.578 | 4.579 Mbytes
Step Temp E_pair E_mol TotEng Press Volume Lx Ly Lz S/CPU 
   21000     292.9026   -10439.746            0   -9567.5318   -1485.9918    787.74069    9.2355145    9.2355145    9.2355145            0 
   21100    302.54478   -10458.127            0   -9557.2006   -5567.0929    787.41895    9.2342569    9.2342569    9.2342569     69.56878 
   21200    313.28366   -10475.957            0   -9543.0515    11113.481    786.94178    9.2323913    9.2323913    9.2323913    70.573002 
   21300     310.6894   -10452.375            0   -9527.1953    9297.6367    786.71839    9.2315176    9.2315176    9.2315176    53.893954 
   21400    317.49502   -10459.073            0   -9513.6272   -1041.0813    787.01813    9.2326898    9.2326898    9.2326898    56.079535 
   21500    324.81446   -10472.196            0   -9504.9541    3396.7723    788.01449    9.2365844    9.2365844    9.2365844    70.946585 
   21600    305.79503   -10409.685            0   -9499.0795    6025.9347    789.63042    9.2428937    9.2428937    9.2428937     51.70174 
   21700     306.7374   -10409.486            0   -9496.0744    39.115569    791.84729    9.2515353    9.2515353    9.2515353     60.14566 
   21800    307.87942   -10414.147            0   -9497.3346    -896.7381    794.07792    9.2602144    9.2602144    9.2602144    64.005082 
   21900    304.79627   -10406.433            0   -9498.8018   -11387.532    795.96823    9.2675566    9.2675566    9.2675566    51.950387 
   22000    320.15943   -10459.131            0   -9505.7506   -494.96078    797.31126     9.272766     9.272766     9.272766     63.92395 
Loop time of 16.5511 on 16 procs for 1000 steps with 1000 atoms

Performance: 5.220 ns/day, 4.598 hours/ns, 60.419 timesteps/s
94.6% CPU use with 16 MPI tasks x no OpenMP threads

MPI task timing breakdown:
Section |  min time  |  avg time  |  max time  |%varavg| %total
---------------------------------------------------------------
Pair    | 1.6351     | 1.7085     | 1.8641     |   4.0 | 10.32
Neigh   | 0.59007    | 0.60228    | 0.64684    |   1.8 |  3.64
Comm    | 0.33719    | 0.53693    | 0.61943    |   8.9 |  3.24
Output  | 9.421      | 9.6898     | 13.675     |  33.1 | 58.55
Modify  | 0.020373   | 4.0066     | 4.2756     |  51.4 | 24.21
Other   |            | 0.006888   |            |       |  0.04

Nlocal:    62.5 ave 68 max 55 min
Histogram: 1 1 2 1 1 2 2 0 4 2
Nghost:    1846.94 ave 1868 max 1823 min
Histogram: 1 1 2 1 1 3 3 2 0 2
Neighs:    0 ave 0 max 0 min
Histogram: 16 0 0 0 0 0 0 0 0 0
FullNghs:  18526.9 ave 20167 max 16220 min
Histogram: 1 1 2 1 0 3 1 1 4 2

Total # of neighbors = 296430
Ave neighs/atom = 296.43
Neighbor list builds = 1000
Dangerous builds not checked
Setting up Verlet run ...
  Unit style    : real
  Current step  : 22000
  Time step     : 1
Per MPI rank memory allocation (min/avg/max) = 4.577 | 4.578 | 4.579 Mbytes
Step Temp E_pair E_mol TotEng Press Volume Lx Ly Lz S/CPU 
   22000    320.15943   -10459.131            0   -9505.7506   -494.96078    797.31126     9.272766     9.272766     9.272766            0 
   22100    299.23698   -10403.114            0   -9512.0377   -19376.884     798.3039    9.2766125    9.2766125    9.2766125    49.854447 
   22200    308.58784   -10442.064            0   -9523.1421   -17470.822    798.76656    9.2784043    9.2784043    9.2784043    62.009572 
   22300     293.1537   -10405.725            0   -9532.7633   -15169.665    797.71072    9.2743143    9.2743143    9.2743143    68.523109 
   22400    309.50105   -10467.896            0   -9546.2549   -8105.2835    795.64933    9.2663187    9.2663187    9.2663187     64.75259 
   22500    293.83652   -10431.439            0   -9556.4444   -1998.3465    792.91616    9.2556962    9.2556962    9.2556962    62.815688 
   22600    307.26989   -10481.122            0   -9566.1243     -9.98819    789.89413    9.2439225    9.2439225    9.2439225    67.795827 
   22700    317.32973   -10520.442            0   -9575.4885    4674.8894    786.77864    9.2317532    9.2317532    9.2317532     51.39265 
   22800    317.32003   -10528.134            0   -9583.2092    26452.885    784.16212    9.2215081    9.2215081    9.2215081    69.462792 
   22900     298.2524   -10478.747            0   -9590.6024    4060.0823    782.26406    9.2140619    9.2140619    9.2140619    62.806802 
   23000     295.8885   -10478.511            0   -9597.4052     2398.967    780.75686    9.2081405    9.2081405    9.2081405    56.640844 
Loop time of 16.4323 on 16 procs for 1000 steps with 1000 atoms

Performance: 5.258 ns/day, 4.565 hours/ns, 60.856 timesteps/s
94.6% CPU use with 16 MPI tasks x no OpenMP threads

MPI task timing breakdown:
Section |  min time  |  avg time  |  max time  |%varavg| %total
---------------------------------------------------------------
Pair    | 1.6109     | 1.7013     | 1.752      |   3.1 | 10.35
Neigh   | 0.58687    | 0.60298    | 0.62253    |   1.0 |  3.67
Comm    | 0.48582    | 0.54015    | 0.64651    |   6.4 |  3.29
Output  | 9.4849     | 9.7428     | 13.56      |  31.6 | 59.29
Modify  | 0.020267   | 3.8382     | 4.0964     |  50.3 | 23.36
Other   |            | 0.006862   |            |       |  0.04

Nlocal:    62.5 ave 70 max 56 min
Histogram: 3 0 1 1 4 2 1 2 0 2
Nghost:    1877.31 ave 1893 max 1864 min
Histogram: 2 3 1 0 2 2 2 2 0 2
Neighs:    0 ave 0 max 0 min
Histogram: 16 0 0 0 0 0 0 0 0 0
FullNghs:  18914.1 ave 21201 max 16773 min
Histogram: 3 0 1 1 5 1 1 2 0 2

Total # of neighbors = 302626
Ave neighs/atom = 302.626
Neighbor list builds = 1000
Dangerous builds not checked
Setting up Verlet run ...
  Unit style    : real
  Current step  : 23000
  Time step     : 1
Per MPI rank memory allocation (min/avg/max) = 4.577 | 4.578 | 4.579 Mbytes
Step Temp E_pair E_mol TotEng Press Volume Lx Ly Lz S/CPU 
   23000     295.8885   -10478.511            0   -9597.4052     2398.967    780.75686    9.2081405    9.2081405    9.2081405            0 
   23100    300.59662   -10499.104            0   -9603.9781    7514.2072    779.51278    9.2032471    9.2032471    9.2032471    66.856555 
   23200    304.95719   -10517.771            0   -9609.6602    12399.409     778.6119    9.1997003    9.1997003    9.1997003    63.440876 
   23300    294.79026   -10491.964            0   -9614.1291     5725.652    778.43243    9.1989934    9.1989934    9.1989934    58.152506 
   23400    307.48462   -10533.759            0    -9618.122    5260.8759    779.20611      9.20204      9.20204      9.20204    66.752323 
   23500    307.92996    -10538.54            0   -9621.5774   -13806.422    781.01565    9.2091578    9.2091578    9.2091578    54.224315 
   23600    305.83366   -10533.559            0   -9622.8382   -652.27739    782.86842    9.2164342    9.2164342    9.2164342    57.833358 
   23700     291.9521   -10492.306            0    -9622.922    15357.676    784.66312    9.2234716    9.2234716    9.2234716    61.942978 
   23800    292.85602    -10495.27            0   -9623.1952    7339.1715    786.53963    9.2308183    9.2308183    9.2308183    59.793431 
   23900    296.12606   -10505.726            0   -9623.9129    -5771.825    788.56022    9.2387161    9.2387161    9.2387161    94.256172 
   24000    301.10726   -10519.609            0   -9622.9628   -4429.0222    790.08076    9.2446505    9.2446505    9.2446505    60.478995 
Loop time of 15.8642 on 16 procs for 1000 steps with 1000 atoms

Performance: 5.446 ns/day, 4.407 hours/ns, 63.035 timesteps/s
94.7% CPU use with 16 MPI tasks x no OpenMP threads

MPI task timing breakdown:
Section |  min time  |  avg time  |  max time  |%varavg| %total
---------------------------------------------------------------
Pair    | 1.6788     | 1.762      | 2.0056     |   6.3 | 11.11
Neigh   | 0.58841    | 0.61266    | 0.68477    |   3.1 |  3.86
Comm    | 0.36944    | 0.68466    | 0.78969    |  13.0 |  4.32
Output  | 8.2411     | 8.5277     | 12.776     |  37.6 | 53.75
Modify  | 0.020717   | 4.2703     | 4.5569     |  53.1 | 26.92
Other   |            | 0.006972   |            |       |  0.04

Nlocal:    62.5 ave 68 max 57 min
Histogram: 1 2 1 3 0 2 4 1 0 2
Nghost:    1838.25 ave 1857 max 1825 min
Histogram: 2 0 4 3 3 0 2 0 1 1
Neighs:    0 ave 0 max 0 min
Histogram: 16 0 0 0 0 0 0 0 0 0
FullNghs:  18682 ave 20397 max 17086 min
Histogram: 1 2 1 3 1 4 1 1 1 1

Total # of neighbors = 298912
Ave neighs/atom = 298.912
Neighbor list builds = 1000
Dangerous builds not checked
Setting up Verlet run ...
  Unit style    : real
  Current step  : 24000
  Time step     : 1
Per MPI rank memory allocation (min/avg/max) = 4.577 | 4.578 | 4.579 Mbytes
Step Temp E_pair E_mol TotEng Press Volume Lx Ly Lz S/CPU 
   24000    301.10726   -10519.609            0   -9622.9628   -4429.0222    790.08076    9.2446505    9.2446505    9.2446505            0 
   24100    297.76774   -10507.577            0    -9620.876    -18852.98      790.875    9.2477472    9.2477472    9.2477472    55.867577 
   24200    292.83087   -10488.372            0   -9616.3712   -4813.2376    790.84584    9.2476335    9.2476335    9.2476335    52.038879 
   24300    289.24001    -10471.74            0   -9610.4327   -12600.048    789.95985    9.2441788    9.2441788    9.2441788    45.508156 
   24400    295.40706   -10479.712            0   -9600.0406    336.48633    788.16849     9.237186     9.237186     9.237186    65.253659 
   24500    301.07032   -10482.443            0   -9585.9068    11155.222    785.96368    9.2285647    9.2285647    9.2285647    59.234751 
   24600    316.48207   -10514.026            0   -9571.5969    -5683.115    783.74586    9.2198761    9.2198761    9.2198761    54.144367 
   24700    312.30913   -10486.898            0   -9556.8951    6417.7746    781.63174    9.2115786    9.2115786    9.2115786    59.182352 
   24800    313.92948   -10480.881            0   -9546.0524    18706.364    780.18071    9.2058749    9.2058749    9.2058749    58.455702 
   24900    319.20896   -10492.358            0   -9541.8079    19730.495    779.93503    9.2049085    9.2049085    9.2049085    55.861882 
   25000     316.7033   -10483.471            0   -9540.3828    26316.506    781.05961    9.2093305    9.2093305    9.2093305    63.846769 
Loop time of 17.7334 on 16 procs for 1000 steps with 1000 atoms

Performance: 4.872 ns/day, 4.926 hours/ns, 56.391 timesteps/s
94.6% CPU use with 16 MPI tasks x no OpenMP threads

MPI task timing breakdown:
Section |  min time  |  avg time  |  max time  |%varavg| %total
---------------------------------------------------------------
Pair    | 1.6595     | 1.7582     | 1.9917     |   6.9 |  9.91
Neigh   | 0.58981    | 0.61318    | 0.68458    |   3.5 |  3.46
Comm    | 0.42873    | 0.73102    | 0.84929    |  13.8 |  4.12
Output  | 10.419     | 10.683     | 14.602     |  31.0 | 60.24
Modify  | 0.021169   | 3.9411     | 4.2056     |  51.0 | 22.22
Other   |            | 0.006938   |            |       |  0.04

Nlocal:    62.5 ave 70 max 57 min
Histogram: 2 1 1 2 5 3 1 0 0 1
Nghost:    1870.62 ave 1893 max 1849 min
Histogram: 1 1 1 4 0 4 1 2 1 1
Neighs:    0 ave 0 max 0 min
Histogram: 16 0 0 0 0 0 0 0 0 0
FullNghs:  18909.8 ave 21361 max 17226 min
Histogram: 2 2 0 2 6 3 0 0 0 1

Total # of neighbors = 302556
Ave neighs/atom = 302.556
Neighbor list builds = 1000
Dangerous builds not checked
Setting up Verlet run ...
  Unit style    : real
  Current step  : 25000
  Time step     : 1
Per MPI rank memory allocation (min/avg/max) = 4.577 | 4.578 | 4.579 Mbytes
Step Temp E_pair E_mol TotEng Press Volume Lx Ly Lz S/CPU 
   25000     316.7033   -10483.471            0   -9540.3828    26316.506    781.05961    9.2093305    9.2093305    9.2093305            0 
   25100    312.09824   -10470.979            0   -9541.6036    22437.455    783.24885    9.2179268    9.2179268    9.2179268     53.35512 
   25200    306.95277   -10459.784            0   -9545.7309    2254.2659    786.33739    9.2300271    9.2300271    9.2300271    72.729107 
   25300    303.07828   -10450.952            0    -9548.437   -3592.4429    789.63415    9.2429082    9.2429082    9.2429082    49.312311 
   25400    318.60988   -10502.741            0   -9553.9752    110.91478    792.76298    9.2551001    9.2551001    9.2551001    68.211341 
   25500    301.60282   -10456.879            0   -9558.7572   -3107.4886    795.69522    9.2664969    9.2664969    9.2664969    69.721521 
   25600    315.00146   -10502.765            0   -9564.7446   -8995.7096    798.19277    9.2761821    9.2761821    9.2761821    56.060204 
   25700    308.66328   -10487.933            0   -9568.7866   -17685.679    799.96794    9.2830536    9.2830536    9.2830536    68.582262 
   25800    301.12225    -10469.54            0   -9572.8492    2258.9013    800.93067    9.2867761    9.2867761    9.2867761    72.683034 
   25900    302.88566   -10479.417            0   -9577.4749    -9359.672    801.12074    9.2875107    9.2875107    9.2875107    65.112585 
   26000    294.89082   -10459.395            0   -9581.2601   -12111.998    800.14033    9.2837204    9.2837204    9.2837204    69.757487 
Loop time of 15.7645 on 16 procs for 1000 steps with 1000 atoms

Performance: 5.481 ns/day, 4.379 hours/ns, 63.434 timesteps/s
94.7% CPU use with 16 MPI tasks x no OpenMP threads

MPI task timing breakdown:
Section |  min time  |  avg time  |  max time  |%varavg| %total
---------------------------------------------------------------
Pair    | 1.6144     | 1.6995     | 1.8994     |   5.3 | 10.78
Neigh   | 0.58297    | 0.60364    | 0.66825    |   2.5 |  3.83
Comm    | 0.41045    | 0.67456    | 0.77643    |  10.6 |  4.28
Output  | 8.6533     | 8.9128     | 12.758     |  33.3 | 56.54
Modify  | 0.021166   | 3.8671     | 4.1268     |  50.5 | 24.53
Other   |            | 0.006875   |            |       |  0.04

Nlocal:    62.5 ave 70 max 55 min
Histogram: 1 0 0 4 4 1 2 3 0 1
Nghost:    1829 ave 1845 max 1811 min
Histogram: 3 0 2 0 2 3 0 2 1 3
Neighs:    0 ave 0 max 0 min
Histogram: 16 0 0 0 0 0 0 0 0 0
FullNghs:  18476 ave 20769 max 16424 min
Histogram: 1 0 3 3 2 3 1 2 0 1

Total # of neighbors = 295616
Ave neighs/atom = 295.616
Neighbor list builds = 1000
Dangerous builds not checked
Setting up Verlet run ...
  Unit style    : real
  Current step  : 26000
  Time step     : 1
Per MPI rank memory allocation (min/avg/max) = 4.577 | 4.578 | 4.579 Mbytes
Step Temp E_pair E_mol TotEng Press Volume Lx Ly Lz S/CPU 
   26000    294.89082   -10459.395            0   -9581.2601   -12111.998    800.14033    9.2837204    9.2837204    9.2837204            0 
   26100    302.20655   -10487.068            0   -9587.1485    4875.1131    798.14168    9.2759841    9.2759841    9.2759841    62.215372 
   26200    298.63651   -10480.005            0   -9590.7169   -19094.518    795.55328    9.2659458    9.2659458    9.2659458    57.502819 
   26300    297.03377   -10480.221            0   -9595.7048   -7770.5975    791.89401    9.2517173    9.2517173    9.2517173    85.499106 
   26400    299.90406   -10493.013            0   -9599.9501    2574.1844    787.90423    9.2361535    9.2361535    9.2361535    99.105551 
   26500    291.84832   -10473.834            0   -9604.7596   -261.19262    784.02154     9.220957     9.220957     9.220957    79.764082 
   26600    287.20535   -10466.498            0     -9611.25    5002.1695    780.56519    9.2073869    9.2073869    9.2073869    54.996208 
   26700    287.24815   -10475.686            0   -9620.3102    18370.387    778.00083     9.197293     9.197293     9.197293     96.20524 
   26800     304.1555   -10538.032            0   -9632.3086    10366.784    776.53794    9.1915247    9.1915247    9.1915247    96.232279 
   26900    294.85609   -10526.059            0   -9648.0275    481.17982    775.78828     9.188566     9.188566     9.188566    73.278019 
   27000    293.34478   -10536.239            0   -9662.7084    7928.2975    774.93702    9.1852039    9.1852039    9.1852039    86.891422 
Loop time of 13.1912 on 16 procs for 1000 steps with 1000 atoms

Performance: 6.550 ns/day, 3.664 hours/ns, 75.808 timesteps/s
94.8% CPU use with 16 MPI tasks x no OpenMP threads

MPI task timing breakdown:
Section |  min time  |  avg time  |  max time  |%varavg| %total
---------------------------------------------------------------
Pair    | 1.6571     | 1.7281     | 1.8562     |   4.0 | 13.10
Neigh   | 0.58954    | 0.60432    | 0.62935    |   1.3 |  4.58
Comm    | 0.36312    | 0.51596    | 0.60183    |   8.6 |  3.91
Output  | 6.6315     | 6.8646     | 10.315     |  34.0 | 52.04
Modify  | 0.02028    | 3.4713     | 3.7045     |  47.8 | 26.32
Other   |            | 0.006924   |            |       |  0.05

Nlocal:    62.5 ave 69 max 55 min
Histogram: 2 0 0 2 1 5 1 4 0 1
Nghost:    1866.19 ave 1901 max 1844 min
Histogram: 2 1 4 1 4 3 0 0 0 1
Neighs:    0 ave 0 max 0 min
Histogram: 16 0 0 0 0 0 0 0 0 0
FullNghs:  19061.5 ave 21194 max 16578 min
Histogram: 1 1 0 2 2 4 2 3 0 1

Total # of neighbors = 304984
Ave neighs/atom = 304.984
Neighbor list builds = 1000
Dangerous builds not checked
Setting up Verlet run ...
  Unit style    : real
  Current step  : 27000
  Time step     : 1
Per MPI rank memory allocation (min/avg/max) = 4.577 | 4.578 | 4.579 Mbytes
Step Temp E_pair E_mol TotEng Press Volume Lx Ly Lz S/CPU 
   27000    293.34478   -10536.239            0   -9662.7084    7928.2975    774.93702    9.1852039    9.1852039    9.1852039            0 
   27100    282.88186   -10516.394            0   -9674.0199     11107.73    774.40657    9.1831077    9.1831077    9.1831077      71.6959 
   27200    290.01728   -10545.873            0   -9682.2511    12206.793    774.81569    9.1847245    9.1847245    9.1847245    71.490895 
   27300    280.56088   -10520.484            0   -9685.0216    4590.4111    776.32696    9.1906922    9.1906922    9.1906922     74.92307 
   27400     289.9172   -10550.016            0   -9686.6917    16012.762    778.46894    9.1991372    9.1991372    9.1991372    85.491716 
   27500    283.24984   -10529.999            0   -9686.5296   -223.21657    781.20382    9.2098973    9.2098973    9.2098973    62.075235 
   27600    290.11869    -10547.23            0   -9683.3057    9071.4285    784.20451    9.2216743    9.2216743    9.2216743    73.500424 
   27700     286.6056   -10530.558            0   -9677.0959   -5939.7284    787.21537     9.233461     9.233461     9.233461    100.86183 
   27800    292.64943   -10540.683            0    -9669.223   -10412.504    789.84845    9.2437443    9.2437443    9.2437443    71.383052 
   27900    302.90195   -10560.996            0    -9659.006   -16014.348    791.67369    9.2508592    9.2508592    9.2508592     74.59355 
   28000    296.03677   -10529.268            0   -9647.7215   -30994.133    792.28391    9.2532354    9.2532354    9.2532354     96.17894 
Loop time of 13.0421 on 16 procs for 1000 steps with 1000 atoms

[...]
 1176700    309.15253   -11540.007            0   -10619.403    3622.7102    725.60813      8.98602      8.98602      8.98602     69.25276 
 1176800    299.48994     -11508.2            0   -10616.371    11669.621    726.25622    8.9886945    8.9886945    8.9886945    53.376548 
 1176900    305.72628   -11527.167            0   -10616.766    2569.3312    727.39252      8.99338      8.99338      8.99338    70.738682 
 1177000    291.75976   -11483.618            0   -10614.807   -11693.859     728.5927    8.9983235    8.9983235    8.9983235    51.861674 
 1177100    305.20422   -11527.099            0   -10618.253   -9875.1071    729.09958    9.0004098    9.0004098    9.0004098    49.590235 
 1177200    303.72738   -11526.273            0   -10621.825   -4841.9385    728.96642    8.9998618    8.9998618    8.9998618    68.398959 
 1177300    313.19165   -11561.077            0   -10628.446   -11510.317    728.18241    8.9966342    8.9966342    8.9966342    52.005541 
 1177400    299.92631   -11532.698            0   -10639.568   -5275.9546    726.82859    8.9910553    8.9910553    8.9910553    59.870311 
 1177500    298.36354   -11547.388            0   -10658.912   -8714.9021    725.37615    8.9850623    8.9850623    8.9850623    54.069114 
 1177600    298.33391    -11569.12            0   -10680.732    1977.0442      723.987    8.9793229    8.9793229    8.9793229    64.476111 
 1177700    287.33093   -11552.885            0   -10697.263    9182.1558     723.0665    8.9755157    8.9755157    8.9755157    60.188295 
 1177800    302.57628   -11609.884            0   -10708.864    12471.904    722.82188    8.9745035    8.9745035    8.9745035    68.838636 
 1177900    295.69854   -11594.878            0   -10714.338     8750.174    723.18667    8.9760129    8.9760129    8.9760129    54.067593 
 1178000    288.75705   -11575.911            0   -10716.041    700.69155    723.76769    8.9784161    8.9784161    8.9784161    73.652285 
 1178100    296.74442   -11601.237            0   -10717.583   -12800.486    724.41868    8.9811072    8.9811072    8.9811072    54.593296 
 1178200    305.67631   -11626.606            0   -10716.354   -8801.4301     724.8891    8.9830508    8.9830508    8.9830508    66.221373 
 1178300    292.85284   -11584.666            0     -10712.6   -4705.6601    725.03765    8.9836644    8.9836644    8.9836644    53.906524 
 1178400     294.5709   -11584.935            0   -10707.753    3704.6101    725.07301    8.9838104    8.9838104    8.9838104    75.678178 
 1178500    282.57231   -11541.356            0   -10699.904   -1753.5549    725.02325    8.9836049    8.9836049    8.9836049    50.172982 
 1178600    294.48241   -11568.881            0   -10691.963    2861.1988    724.85608    8.9829144    8.9829144    8.9829144    56.070485 
 1178700    304.41693    -11589.83            0   -10683.329    2952.5414    724.55584     8.981674     8.981674     8.981674    63.146407 
 1178800     301.3142   -11571.591            0   -10674.329   -2670.9296    724.22626    8.9803119    8.9803119    8.9803119     55.48287 
 1178900    303.02918   -11566.506            0   -10664.137    8162.3517    723.90941    8.9790021    8.9790021    8.9790021     67.94536 
 1179000    304.88134   -11563.986            0   -10656.101    7390.2196    723.90702    8.9789922    8.9789922    8.9789922    51.391618 
 1179100    303.58944   -11554.238            0     -10650.2    8629.6709    724.45226     8.981246     8.981246     8.981246    60.785811 
 1179200    305.02533   -11551.365            0   -10643.051   -2922.5579    725.50977    8.9856139    8.9856139    8.9856139    52.491106 
 1179300    307.38134   -11553.701            0   -10638.372    117.69383    726.62866    8.9902308    8.9902308    8.9902308    50.386953 
 1179400    297.49816   -11520.009            0    -10634.11   -1932.4542    727.59124    8.9941989    8.9941989    8.9941989    50.153333 
 1179500     294.2968   -11508.781            0   -10632.416   -10455.047    728.14092    8.9964633    8.9964633    8.9964633    48.940244 
 1179600     301.2204   -11528.204            0   -10631.221   -15806.828    728.11203    8.9963443    8.9963443    8.9963443    58.716761 
 1179700    309.12468   -11551.415            0   -10630.894   -13130.158    727.34013    8.9931641    8.9931641    8.9931641    53.463612 
 1179800    301.94367   -11528.537            0     -10629.4    4000.1391    726.15433    8.9882741    8.9882741    8.9882741    64.930761 
 1179900    318.95764   -11580.983            0   -10631.181    1571.8989    725.01878    8.9835865    8.9835865    8.9835865    50.907074 
 1180000    302.11645   -11530.986            0   -10631.335     9023.728    724.17781    8.9801117    8.9801117    8.9801117    63.985523 
 1180100    300.89637   -11528.974            0   -10632.956      11986.5    724.11896    8.9798684    8.9798684    8.9798684    60.386682 
 1180200    312.04985   -11564.987            0   -10635.756    4180.4978    724.71705    8.9823401    8.9823401    8.9823401    47.416816 
 1180300    299.08725    -11529.85            0   -10639.219    -2817.653    725.53924    8.9857356    8.9857356    8.9857356     67.16874 
 1180400    309.24091   -11567.755            0   -10646.889    1548.7011     726.5359    8.9898482    8.9898482    8.9898482    55.194579 
 1180500    288.98346   -11516.834            0   -10656.291   -11040.711    727.54796    8.9940206    8.9940206    8.9940206    68.147314 
 1180600    307.80576   -11588.199            0   -10671.606   -17949.614    728.00593    8.9959073    8.9959073    8.9959073    56.886777 
 1180700    296.57165    -11567.01            0    -10683.87   -12916.039    727.68106     8.994569     8.994569     8.994569    68.546544 
 1180800    298.40942   -11585.281            0   -10696.669   -13726.351      726.641    8.9902817    8.9902817    8.9902817    57.915565 
 1180900    300.14389    -11600.56            0   -10706.783   -3525.2406    725.09216    8.9838895    8.9838895    8.9838895    60.528472 
 1181000    293.87622   -11588.314            0   -10713.201   -2621.2034      723.454    8.9771188    8.9771188    8.9771188    78.159125 
 1181100    296.33347   -11598.981            0   -10716.551    12130.661    722.03965    8.9712649    8.9712649    8.9712649    68.458792 
 1181200    283.25797    -11560.79            0   -10717.296    26490.841    721.28189    8.9681255    8.9681255    8.9681255    77.031604 
 1181300    294.19185     -11595.2            0   -10719.146    17427.073    721.62479    8.9695464    8.9695464    8.9695464    63.761288 
 1181400    291.66013   -11586.262            0   -10717.748    4708.0878     722.9785    8.9751516    8.9751516    8.9751516    82.771297 
 1181500    280.64384   -11548.751            0   -10713.042    2447.6047    724.94272    8.9832723    8.9832723    8.9832723    56.470092 
 1181600    283.69056   -11551.969            0   -10707.187   -13828.272    726.77528    8.9908354    8.9908354    8.9908354    73.230696 
 1181700    297.67946   -11586.955            0   -10700.516   -17273.751    727.88638    8.9954149    8.9954149    8.9954149    96.832538 
 1181800    290.94936   -11555.821            0   -10689.424   -13578.885     728.1659    8.9965662    8.9965662    8.9965662    49.232623 
 1181900     298.5185   -11566.195            0   -10677.258   -7399.5031    727.64946    8.9944388    8.9944388    8.9944388    110.70728 
 1182000     296.3199   -11546.979            0   -10664.589   -7566.4511    726.53226    8.9898332    8.9898332    8.9898332     73.78177 
 1182100     308.8368   -11576.168            0   -10656.505     7642.616    725.12835     8.984039     8.984039     8.984039    59.014587 
 1182200    291.28937   -11513.712            0   -10646.302     2524.665    724.02961     8.979499     8.979499     8.979499    91.921978 
 1182300    306.57258   -11554.795            0   -10641.874     9700.418     723.4822    8.9772355    8.9772355    8.9772355    75.875913 
 1182400    296.85205   -11522.102            0   -10638.127    11748.799     723.5981    8.9777148    8.9777148    8.9777148    76.637269 
 1182500     305.1071   -11546.433            0   -10637.876    20558.762    724.26351    8.9804659    8.9804659    8.9804659    92.939388 
 1182600     303.3847   -11539.711            0   -10636.284    5414.3924     725.4767    8.9854774    8.9854774    8.9854774    59.990123 
 1182700    299.29023   -11527.537            0   -10636.301    3081.5318    726.84418    8.9911195    8.9911195    8.9911195    76.860581 
 1182800    308.10175   -11555.078            0   -10637.603   -13955.267    728.01888    8.9959607    8.9959607    8.9959607    65.817446 
 1182900    294.69414   -11514.814            0   -10637.265   -17316.369    728.65675    8.9985872    8.9985872    8.9985872    88.645821 
 1183000     294.7189   -11517.335            0   -10639.713   -3675.2613    728.31819    8.9971933    8.9971933    8.9971933    71.439778 
 1183100    300.19791   -11537.284            0   -10643.346   -470.86694    727.13264    8.9923088    8.9923088    8.9923088    63.907647 
 1183200    305.52693   -11556.792            0   -10646.985   -6584.0476    725.59897    8.9859822    8.9859822    8.9859822    53.441192 
 1183300    295.96471   -11531.225            0   -10649.893    13234.793    724.29442    8.9805937    8.9805937    8.9805937    67.585607 
 1183400    302.48353   -11555.012            0   -10654.268    8886.6563    723.69799    8.9781279    8.9781279    8.9781279    57.898602 
 1183500    298.85059   -11548.879            0   -10658.953    23469.825    723.89876    8.9789581    8.9789581    8.9789581    79.974178 
 1183600    296.49758   -11546.901            0   -10663.982    4543.8213    725.06156    8.9837631    8.9837631    8.9837631    82.813412 
 1183700    294.45494   -11545.048            0   -10668.211   -4806.3038    726.65768    8.9903505    8.9903505    8.9903505    61.986756 
 1183800    293.27432   -11546.153            0   -10672.832   -17014.468    728.09099    8.9962577    8.9962577    8.9962577    79.687734 
 1183900    301.17796   -11575.673            0   -10678.816   -10979.005    728.95067     8.999797     8.999797     8.999797    89.284309 
 1184000    286.74396   -11534.785            0    -10680.91   -10742.884    729.12091    9.0004975    9.0004975    9.0004975    75.745878 
 1184100    292.70114   -11556.663            0   -10685.049   -15545.078    728.53844    8.9981002    8.9981002    8.9981002    81.568732 
 1184200    284.51659   -11533.355            0   -10686.113   -3089.2502    727.17812    8.9924963    8.9924963    8.9924963    78.558879 
 1184300    300.81274   -11583.517            0   -10687.748    565.03875    725.45042    8.9853689    8.9853689    8.9853689    75.339007 
 1184400     291.6749   -11554.845            0   -10686.286    13680.832    723.76657    8.9784115    8.9784115    8.9784115    71.157056 
 1184500    288.90703   -11542.769            0   -10682.454    24884.694    722.34701    8.9725377    8.9725377    8.9725377    76.301822 
 1184600    308.64018   -11598.698            0   -10679.621    6861.2731    722.03725     8.971255     8.971255     8.971255    101.19976 
 1184700    306.66066   -11585.302            0   -10672.119    18357.876    722.92773    8.9749415    8.9749415    8.9749415    54.932469 
 1184800    288.86981   -11523.704            0   -10663.499    15566.087    725.02273    8.9836028    8.9836028    8.9836028    85.170247 
 1184900    289.46199   -11515.569            0   -10653.601   -2550.1017     727.7409    8.9948155    8.9948155    8.9948155    78.152726 
 1185000    294.10712   -11520.021            0    -10644.22   -24407.407    730.20645    9.0049621    9.0049621    9.0049621    53.734137 
 1185100    304.51512   -11540.211            0   -10633.417   -26941.925     731.6648    9.0109529    9.0109529    9.0109529    72.423388 
 1185200    296.48895   -11505.819            0   -10622.926   -15909.778    731.46395    9.0101283    9.0101283    9.0101283    77.804848 
 1185300    300.72716   -11510.269            0   -10614.755    -6429.396    729.85251    9.0035069    9.0035069    9.0035069     90.13636 
 1185400    308.49916    -11526.93            0   -10608.272    2431.0942    727.60724    8.9942648    8.9942648    8.9942648    84.808061 
 1185500    302.18544   -11504.058            0   -10604.202    8632.5313    725.46357    8.9854232    8.9854232    8.9854232    76.091001 
 1185600    301.20096   -11495.652            0   -10598.727    21543.676     724.0207    8.9794622    8.9794622    8.9794622    52.936455 
 1185700    303.39002   -11499.081            0   -10595.638     19865.72    723.64234    8.9778978    8.9778978    8.9778978    52.502844 
 1185800    305.22127    -11504.57            0   -10595.673     4965.299    724.38006    8.9809476    8.9809476    8.9809476    65.800871 
 1185900    300.13945   -11489.537            0   -10595.773    13916.762    725.79768    8.9868024    8.9868024    8.9868024     60.99665 
 1186000    312.40957    -11529.83            0   -10599.527    161.07936    727.56928    8.9941084    8.9941084    8.9941084    71.475508 
 1186100    308.93956   -11523.259            0    -10603.29    -10067.09    729.28119     9.001157     9.001157     9.001157    60.002088 
 1186200    297.33775   -11492.336            0   -10606.915   -18524.707    730.64748    9.0067747    9.0067747    9.0067747    75.214045 
 1186300    299.35371   -11504.859            0   -10613.435   -21655.047    731.24274    9.0092199    9.0092199    9.0092199    99.240366 
 1186400    296.23856   -11504.587            0   -10622.439   -14173.305    730.52736     9.006281     9.006281     9.006281    60.240059 
 1186500    297.08979   -11517.498            0   -10632.815   -13913.919    728.65726    8.9985893    8.9985893    8.9985893    85.174261 
 1186600    300.38928    -11541.17            0   -10646.662    9524.9693    726.29754     8.988865     8.988865     8.988865    91.197577 
 1186700    304.51504   -11569.338            0   -10662.544    16200.236     724.1542    8.9800141    8.9800141    8.9800141    70.026494 
 1186800    289.70377   -11536.639            0    -10673.95    19729.998    722.97211    8.9751252    8.9751252    8.9751252    75.442141 
 1186900    288.83258   -11543.826            0   -10683.732    22491.097    722.92922    8.9749477    8.9749477    8.9749477    54.912247 
 1187000    287.17765   -11544.892            0   -10689.726    14509.606    724.15716    8.9800263    8.9800263    8.9800263    90.247018 
 1187100    289.67417   -11554.063            0   -10691.463   -71.982327    726.21674    8.9885316    8.9885316    8.9885316    79.500801 
 1187200    296.66933   -11575.001            0    -10691.57   -18783.423    728.29201    8.9970855    8.9970855    8.9970855    59.755512 
 1187300     289.3127   -11549.691            0   -10688.168   -18708.476    729.60038      9.00247      9.00247      9.00247    93.084953 
 1187400    298.09015   -11572.736            0   -10685.074    -23090.34    729.59372    9.0024426    9.0024426    9.0024426    84.192426 
 1187500    293.19973   -11554.642            0   -10681.544   -14105.825     728.2185    8.9967828    8.9967828    8.9967828    68.743754 
 1187600    301.27717   -11573.932            0   -10676.781   -1623.4047    726.21309    8.9885166    8.9885166    8.9885166    101.99292 
 1187700    283.51277    -11513.68            0   -10669.427    10055.816    724.02678    8.9794874    8.9794874    8.9794874    67.792533 
 1187800    295.80921   -11545.889            0   -10665.019    17828.367    722.08001    8.9714321    8.9714321    8.9714321    75.362717 
 1187900    298.56422   -11549.492            0   -10660.419    23921.288    720.91198    8.9665921    8.9665921    8.9665921    90.272232 
 1188000    284.96143   -11503.465            0   -10654.898    15095.885    721.02143    8.9670459    8.9670459    8.9670459    67.174514 
 1188100     289.8785   -11514.559            0    -10651.35    14636.622    722.58575    8.9735261    8.9735261    8.9735261     61.95238 
 1188200    291.66089   -11515.145            0   -10646.628     3391.733    725.53509    8.9857184    8.9857184    8.9857184    60.728513 
 1188300    295.28816   -11520.815            0   -10641.497   -24112.931    728.69076    8.9987272    8.9987272    8.9987272    61.774255 
 1188400    294.71124   -11512.977            0   -10635.377   -18914.458    730.98277    9.0081522    9.0081522    9.0081522    62.662421 
 1188500    286.64437    -11481.62            0   -10628.042   -17719.979    732.08856    9.0126922    9.0126922    9.0126922    69.110034 
 1188600    300.23662   -11517.332            0   -10623.278   -19516.141    731.82675    9.0116177    9.0116177    9.0116177    54.291382 
 1188700    297.87814   -11504.425            0   -10617.395   -14660.877    730.36343    9.0056073    9.0056073    9.0056073    74.079299 
 1188800     299.7822   -11502.305            0   -10609.605    2821.4628    728.02433    8.9959831    8.9959831    8.9959831    49.015748 
 1188900    307.13562   -11518.604            0   -10604.007      2924.01    725.49298    8.9855446    8.9855446    8.9855446    55.299268 
 1189000    308.74261    -11517.01            0   -10597.628    28450.194    723.38165    8.9768196    8.9768196    8.9768196    72.739537 
 1189100    312.16296   -11520.941            0   -10591.373    15037.525    722.37201    8.9726412    8.9726412    8.9726412    52.801238 
 1189200    297.89111   -11473.538            0   -10586.469    21581.353    722.79678    8.9743996    8.9743996    8.9743996    55.048235 
 1189300    300.79811   -11480.182            0   -10584.457    12454.733    724.36837    8.9808993    8.9808993    8.9808993    61.827038 
 1189400    299.37393   -11474.661            0   -10583.176     4877.004    726.78691    8.9908834    8.9908834    8.9908834    55.848136 
 1189500    311.34563   -11510.421            0   -10583.287    -6036.619    729.42853    9.0017631    9.0017631    9.0017631    48.699262 
 1189600    302.43976   -11484.738            0   -10584.124    -21605.51    731.33592    9.0096026    9.0096026    9.0096026    65.733006 
 1189700    310.18103   -11513.697            0   -10590.031   -25374.958     731.8935    9.0118917    9.0118917    9.0118917    60.085294 
 1189800    307.12114   -11514.657            0   -10600.102   -15313.323    731.16017    9.0088808    9.0088808    9.0088808    48.763598 
 1189900     307.1919   -11527.724            0   -10612.959   -12990.887    729.10156    9.0004179    9.0004179    9.0004179    55.857576 
 1190000    304.41175   -11533.253            0   -10626.766    11528.381    726.25247    8.9886791    8.9886791    8.9886791    53.170294 
Loop time of 1567.07 on 16 procs for 100000 steps with 1000 atoms

Performance: 5.513 ns/day, 4.353 hours/ns, 63.813 timesteps/s
94.6% CPU use with 16 MPI tasks x no OpenMP threads

MPI task timing breakdown:
Section |  min time  |  avg time  |  max time  |%varavg| %total
---------------------------------------------------------------
Pair    | 164.62     | 175.89     | 190.6      |  47.8 | 11.22
Neigh   | 61.384     | 62.716     | 66.607     |  15.1 |  4.00
Comm    | 36.606     | 55.17      | 67.753     |  96.2 |  3.52
Output  | 857.82     | 883.9      | 1270.4     | 335.7 | 56.40
Modify  | 2.0555     | 388.69     | 414.82     | 506.4 | 24.80
Other   |            | 0.7099     |            |       |  0.05

Nlocal:    62.5 ave 68 max 58 min
Histogram: 1 1 3 1 2 1 3 3 0 1
Nghost:    1923.12 ave 1934 max 1910 min
Histogram: 2 0 1 1 2 3 1 2 2 2
Neighs:    0 ave 0 max 0 min
Histogram: 16 0 0 0 0 0 0 0 0 0
FullNghs:  20240.1 ave 22043 max 18728 min
Histogram: 2 1 3 0 3 1 4 1 0 1

Total # of neighbors = 323842
Ave neighs/atom = 323.842
Neighbor list builds = 100000
Dangerous builds not checked
Total wall time: 5:02:26
