LAMMPS (16 Mar 2018)
Reading data file ...
  orthogonal box = (-4.74016 -4.74016 -4.74016) to (4.74016 4.74016 4.74016)
  2 by 2 by 4 MPI processor grid
  reading atoms ...
  1000 atoms
Reading potential file /home/fs01/ajm529/lammps-16Mar18/potentials/sw_potentials/AG/eps2.23.sw with DATE: 2008-01-29
Neighbor list info ...
  update every 1 steps, delay 0 steps, check no
  max neighbors/atom: 2000, page size: 100000
  master list distance cutoff = 3.836
  ghost atom cutoff = 3.836
  binsize = 1.918, bins = 5 5 5
  1 neighbor lists, perpetual/occasional/extra = 1 0 0
  (1) pair sw, perpetual
      attributes: full, newton on
      pair build: full/bin/atomonly
      stencil: full/bin/3d
      bin: standard
Setting up Verlet run ...
  Unit style    : real
  Current step  : 0
  Time step     : 1
Per MPI rank memory allocation (min/avg/max) = 3.518 | 3.519 | 3.52 Mbytes
Step Temp E_pair E_mol TotEng Press Volume Lx Ly Lz S/CPU 
       0          300   -10004.565            0   -9111.2158   -14276.319    852.05501    9.4803102    9.4803102    9.4803102            0 
     100     328.8273   -10096.289            0    -9117.097    -46826.44    850.44731    9.4743438    9.4743438    9.4743438    117.50203 
     200    339.26345    -10145.81            0   -9135.5411   -45339.975    844.87892    9.4536204    9.4536204    9.4536204    102.65688 
     300    340.73923   -10175.921            0   -9161.2582   -38962.621    835.97463     9.420292     9.420292     9.420292    63.330833 
     400    334.38218   -10185.523            0   -9189.7904   -13138.265    824.99536    9.3788697    9.3788697    9.3788697    114.08626 
     500    341.94496   -10231.642            0   -9213.3887   -22639.777    813.67039    9.3357562    9.3357562    9.3357562    96.660032 
     600    342.42607   -10254.262            0   -9234.5751    393.77707    803.13763    9.2952982    9.2952982    9.2952982    100.58507 
     700    338.31043   -10262.972            0   -9255.5415    16017.697    794.74646    9.2628124    9.2628124    9.2628124      105.722 
     800    320.63141   -10233.546            0   -9278.7601    8653.7216    788.75891     9.239492     9.239492     9.239492    71.161298 
     900    334.89928   -10300.559            0   -9303.2861    28540.444    785.02989    9.2249084    9.2249084    9.2249084    101.07012 
    1000    335.61126   -10328.311            0   -9328.9177    27976.892    783.16279    9.2175892    9.2175892    9.2175892    100.91867 
Loop time of 10.6409 on 16 procs for 1000 steps with 1000 atoms

Performance: 8.120 ns/day, 2.956 hours/ns, 93.977 timesteps/s
95.0% CPU use with 16 MPI tasks x no OpenMP threads

MPI task timing breakdown:
Section |  min time  |  avg time  |  max time  |%varavg| %total
---------------------------------------------------------------
Pair    | 1.5385     | 1.61       | 1.7113     |   3.7 | 15.13
Neigh   | 0.57797    | 0.59629    | 0.61797    |   1.3 |  5.60
Comm    | 0.35073    | 0.46972    | 0.56034    |   8.1 |  4.41
Output  | 4.9355     | 5.1258     | 7.937      |  32.1 | 48.17
Modify  | 0.020362   | 2.8322     | 3.0227     |  43.1 | 26.62
Other   |            | 0.006812   |            |       |  0.06

Nlocal:    62.5 ave 68 max 56 min
Histogram: 2 0 2 1 1 3 3 1 0 3
Nghost:    1865.56 ave 1882 max 1852 min
Histogram: 2 2 0 2 2 3 2 1 1 1
Neighs:    0 ave 0 max 0 min
Histogram: 16 0 0 0 0 0 0 0 0 0
FullNghs:  18853 ave 20741 max 16699 min
Histogram: 1 1 2 1 1 3 3 1 1 2

Total # of neighbors = 301648
Ave neighs/atom = 301.648
Neighbor list builds = 1000
Dangerous builds not checked
Setting up Verlet run ...
  Unit style    : real
  Current step  : 1000
  Time step     : 1
Per MPI rank memory allocation (min/avg/max) = 3.77 | 4.427 | 4.579 Mbytes
Step Temp E_pair E_mol TotEng Press Volume Lx Ly Lz S/CPU 
    1000    335.61126   -10328.311            0   -9328.9177    27976.892    783.16279    9.2175892    9.2175892    9.2175892            0 
    1100    324.52959   -10319.696            0   -9353.3021    10586.739    782.74347    9.2159438    9.2159438    9.2159438    108.93963 
    1200    332.36068   -10370.509            0   -9380.7957    4664.2321    783.34983    9.2183229    9.2183229    9.2183229    78.658437 
    1300    317.79184   -10351.058            0   -9404.7278    20466.198    784.76043    9.2238528    9.2238528    9.2238528    83.103319 
    1400    320.85651   -10383.333            0   -9427.8769     2948.418    786.55924     9.230895     9.230895     9.230895    73.770895 
    1500    314.85087   -10387.284            0   -9449.7122    3197.5056    788.67117    9.2391494    9.2391494    9.2391494    65.863775 
    1600    311.39278   -10397.608            0   -9470.3331   -7034.0442    790.67448    9.2469656    9.2469656    9.2469656     103.7468 
    1700    310.28768   -10412.652            0    -9488.668   -2245.8472     791.9734    9.2520264    9.2520264    9.2520264    96.722578 
    1800    304.81878   -10414.457            0   -9506.7586    3960.4581    792.26475    9.2531608    9.2531608    9.2531608    67.135894 
    1900    296.26348   -10405.016            0   -9522.7936   -13009.426    791.90257    9.2517506    9.2517506    9.2517506    91.828483 
    2000    301.37645   -10435.941            0   -9538.4932   -26363.559    790.82098    9.2475367    9.2475367    9.2475367    88.941769 
Loop time of 11.967 on 16 procs for 1000 steps with 1000 atoms

Performance: 7.220 ns/day, 3.324 hours/ns, 83.563 timesteps/s
94.9% CPU use with 16 MPI tasks x no OpenMP threads

MPI task timing breakdown:
Section |  min time  |  avg time  |  max time  |%varavg| %total
---------------------------------------------------------------
Pair    | 1.6832     | 1.7211     | 1.7611     |   1.6 | 14.38
Neigh   | 0.59213    | 0.60392    | 0.62113    |   0.8 |  5.05
Comm    | 0.43486    | 0.48074    | 0.5302     |   3.5 |  4.02
Output  | 5.9181     | 6.122      | 9.1332     |  31.4 | 51.16
Modify  | 0.020484   | 3.0324     | 3.2365     |  44.7 | 25.34
Other   |            | 0.006892   |            |       |  0.06

Nlocal:    62.5 ave 68 max 58 min
Histogram: 1 1 3 2 2 1 2 1 1 2
Nghost:    1848.88 ave 1873 max 1824 min
Histogram: 1 2 0 3 2 2 1 4 0 1
Neighs:    0 ave 0 max 0 min
Histogram: 16 0 0 0 0 0 0 0 0 0
FullNghs:  18670.6 ave 20504 max 17270 min
Histogram: 2 1 6 0 0 2 1 1 2 1

Total # of neighbors = 298730
Ave neighs/atom = 298.73
Neighbor list builds = 1000
Dangerous builds not checked
Setting up Verlet run ...
  Unit style    : real
  Current step  : 2000
  Time step     : 1
Per MPI rank memory allocation (min/avg/max) = 4.577 | 4.578 | 4.579 Mbytes
Step Temp E_pair E_mol TotEng Press Volume Lx Ly Lz S/CPU 
    2000    301.37645   -10435.941            0   -9538.4932   -26363.559    790.82098    9.2475367    9.2475367    9.2475367            0 
    2100    312.11285   -10483.183            0    -9553.764   -1673.1768    788.88093    9.2399684    9.2399684    9.2399684    99.829415 
    2200    301.98425    -10466.42            0   -9567.1626    1851.1771    786.75376    9.2316559    9.2316559    9.2316559    82.208774 
    2300    299.11328     -10471.6            0   -9580.8918    7926.5603    784.74981    9.2238112    9.2238112    9.2238112    77.915275 
    2400     303.6704   -10497.708            0   -9593.4293    1761.7525    783.19498    9.2177155    9.2177155    9.2177155    89.628263 
    2500    301.29736    -10502.37            0   -9605.1575   -12819.462    781.75992    9.2120821    9.2120821    9.2120821    98.934987 
    2600    294.59722   -10492.033            0   -9614.7729   -18651.428    779.95633    9.2049923    9.2049923    9.2049923    103.12864 
    2700    293.81128   -10499.672            0   -9624.7527   -7418.1657    777.67472    9.1960077    9.1960077    9.1960077    69.403089 
    2800    296.45412   -10515.069            0   -9632.2797   -2705.1518    774.96353    9.1853087    9.1853087    9.1853087    94.813498 
    2900    289.71886   -10500.963            0   -9638.2298    9515.2812    772.30637    9.1747986    9.1747986    9.1747986    99.293868 
    3000    299.87923   -10537.641            0   -9644.6519    12373.248    770.44649    9.1674277    9.1674277    9.1674277    85.349211 
Loop time of 11.2721 on 16 procs for 1000 steps with 1000 atoms

Performance: 7.665 ns/day, 3.131 hours/ns, 88.715 timesteps/s
95.0% CPU use with 16 MPI tasks x no OpenMP threads

MPI task timing breakdown:
Section |  min time  |  avg time  |  max time  |%varavg| %total
---------------------------------------------------------------
Pair    | 1.6708     | 1.7478     | 1.8389     |   3.5 | 15.51
Neigh   | 0.58741    | 0.60693    | 0.64676    |   1.9 |  5.38
Comm    | 0.38682    | 0.51072    | 0.60732    |   8.4 |  4.53
Output  | 5.3182     | 5.5127     | 8.3782     |  31.5 | 48.91
Modify  | 0.020782   | 2.8869     | 3.0817     |  43.6 | 25.61
Other   |            | 0.006892   |            |       |  0.06

Nlocal:    62.5 ave 70 max 58 min
Histogram: 2 3 2 1 3 2 2 0 0 1
Nghost:    1887 ave 1898 max 1872 min
Histogram: 2 0 0 2 1 1 6 1 1 2
Neighs:    0 ave 0 max 0 min
Histogram: 16 0 0 0 0 0 0 0 0 0
FullNghs:  19172.2 ave 21685 max 17637 min
Histogram: 2 1 4 2 3 1 2 0 0 1

Total # of neighbors = 306756
Ave neighs/atom = 306.756
Neighbor list builds = 1000
Dangerous builds not checked
Setting up Verlet run ...
  Unit style    : real
  Current step  : 3000
  Time step     : 1
Per MPI rank memory allocation (min/avg/max) = 4.577 | 4.578 | 4.579 Mbytes
Step Temp E_pair E_mol TotEng Press Volume Lx Ly Lz S/CPU 
    3000    299.87923   -10537.641            0   -9644.6519    12373.248    770.44649    9.1674277    9.1674277    9.1674277            0 
    3100    297.45662   -10533.119            0   -9647.3445    16507.409    769.96305    9.1655098    9.1655098    9.1655098    79.535796 
    3200    286.06616   -10503.773            0   -9651.9172     13079.35    770.54716     9.167827     9.167827     9.167827    84.458223 
    3300    296.00109   -10537.706            0   -9656.2651    18120.712    771.94343    9.1733612    9.1733612    9.1733612     92.02208 
    3400    292.46694   -10529.626            0   -9658.7094   -4922.5513    774.17645     9.182198     9.182198     9.182198    97.848492 
    3500    293.06314   -10532.331            0   -9659.6387    7704.2243    776.76234      9.19241      9.19241      9.19241    73.238361 
    3600    296.69015   -10543.519            0   -9660.0268   -262.15351    779.53604    9.2033386    9.2033386    9.2033386    82.654145 
    3700    291.56892   -10527.001            0   -9658.7582    -6877.607    782.18052    9.2137339    9.2137339    9.2137339     113.7858 
    3800    278.49452   -10486.065            0   -9656.7556   -2062.3332    784.63923     9.223378     9.223378     9.223378    101.21231 
    3900     284.9194   -10502.625            0   -9654.1837    2595.0223    786.90153    9.2322338    9.2322338    9.2322338    100.85741 
    4000    289.91522   -10511.863            0   -9648.5451   -1427.5737    788.98783    9.2403857    9.2403857    9.2403857     73.98904 
Loop time of 11.3352 on 16 procs for 1000 steps with 1000 atoms

Performance: 7.622 ns/day, 3.149 hours/ns, 88.221 timesteps/s
95.0% CPU use with 16 MPI tasks x no OpenMP threads

MPI task timing breakdown:
Section |  min time  |  avg time  |  max time  |%varavg| %total
---------------------------------------------------------------
Pair    | 1.639      | 1.7559     | 1.8385     |   4.0 | 15.49
Neigh   | 0.58763    | 0.60736    | 0.64607    |   1.6 |  5.36
Comm    | 0.35654    | 0.47754    | 0.61399    |   9.2 |  4.21
Output  | 4.9829     | 5.2038     | 8.4665     |  36.9 | 45.91
Modify  | 0.020334   | 3.2837     | 3.5052     |  46.5 | 28.97
Other   |            | 0.006917   |            |       |  0.06

Nlocal:    62.5 ave 69 max 56 min
Histogram: 2 0 3 1 2 1 3 2 1 1
Nghost:    1852.75 ave 1876 max 1835 min
Histogram: 2 2 0 3 3 3 1 1 0 1
Neighs:    0 ave 0 max 0 min
Histogram: 16 0 0 0 0 0 0 0 0 0
FullNghs:  18699.6 ave 20595 max 16678 min
Histogram: 2 0 3 1 1 2 1 3 2 1

Total # of neighbors = 299194
Ave neighs/atom = 299.194
Neighbor list builds = 1000
Dangerous builds not checked
Setting up Verlet run ...
  Unit style    : real
  Current step  : 4000
  Time step     : 1
Per MPI rank memory allocation (min/avg/max) = 4.577 | 4.578 | 4.579 Mbytes
Step Temp E_pair E_mol TotEng Press Volume Lx Ly Lz S/CPU 
    4000    289.91522   -10511.863            0   -9648.5451   -1427.5737    788.98783    9.2403857    9.2403857    9.2403857            0 
    4100    291.42278    -10508.31            0   -9640.5024   -17079.142    790.61541    9.2467353    9.2467353    9.2467353    85.801561 
    4200     286.6119   -10482.939            0   -9629.4575   -10987.449    791.78957    9.2513105    9.2513105    9.2513105    97.457878 
    4300    295.19439   -10498.419            0   -9619.3805    -14357.01    792.06249    9.2523733    9.2523733    9.2523733    130.15359 
    4400    298.12811   -10495.634            0   -9607.8596   -3950.7163    791.63608    9.2507127    9.2507127    9.2507127    124.34369 
    4500    295.86398   -10477.571            0    -9596.539   -4373.5778    790.73751    9.2472113    9.2472113    9.2472113    77.700092 
    4600    307.55704   -10503.275            0   -9587.4229   -6555.3945    789.71209    9.2432123    9.2432123    9.2432123    80.542924 
    4700    294.81088   -10456.036            0   -9578.1392   -7183.3512    788.19442    9.2372873    9.2372873    9.2372873    94.738613 
    4800    299.38553   -10459.138            0   -9567.6193   -8236.4186    786.38183     9.230201     9.230201     9.230201    105.96725 
    4900    311.37238   -10488.413            0   -9561.1989   -6717.1989    784.42857    9.2225525    9.2225525    9.2225525    74.045249 
    5000    319.48922   -10507.342            0    -9555.958   -2358.3515     782.1278    9.2135269    9.2135269    9.2135269    123.51896 
Loop time of 10.452 on 16 procs for 1000 steps with 1000 atoms

Performance: 8.266 ns/day, 2.903 hours/ns, 95.675 timesteps/s
95.0% CPU use with 16 MPI tasks x no OpenMP threads

MPI task timing breakdown:
Section |  min time  |  avg time  |  max time  |%varavg| %total
---------------------------------------------------------------
Pair    | 1.6247     | 1.7033     | 1.7805     |   3.2 | 16.30
Neigh   | 0.59061    | 0.6026     | 0.63521    |   1.3 |  5.77
Comm    | 0.34933    | 0.45892    | 0.54297    |   7.5 |  4.39
Output  | 4.9338     | 5.1073     | 7.6594     |  29.2 | 48.86
Modify  | 0.020429   | 2.5731     | 2.7469     |  41.1 | 24.62
Other   |            | 0.00681    |            |       |  0.07

Nlocal:    62.5 ave 70 max 57 min
Histogram: 2 2 1 4 2 0 2 0 2 1
Nghost:    1870.69 ave 1899 max 1836 min
Histogram: 2 0 1 1 2 4 2 0 1 3
Neighs:    0 ave 0 max 0 min
Histogram: 16 0 0 0 0 0 0 0 0 0
FullNghs:  18885.1 ave 21515 max 16984 min
Histogram: 1 2 4 2 2 0 2 1 1 1

Total # of neighbors = 302162
Ave neighs/atom = 302.162
Neighbor list builds = 1000
Dangerous builds not checked
Setting up Verlet run ...
  Unit style    : real
  Current step  : 5000
  Time step     : 1
Per MPI rank memory allocation (min/avg/max) = 4.577 | 4.578 | 4.579 Mbytes
Step Temp E_pair E_mol TotEng Press Volume Lx Ly Lz S/CPU 
    5000    319.48922   -10507.342            0    -9555.958   -2358.3515     782.1278    9.2135269    9.2135269    9.2135269            0 
    5100    302.52836   -10452.352            0   -9551.4742    11299.773    779.92219     9.204858     9.204858     9.204858    92.001564 
    5200    296.43084   -10431.363            0   -9548.6429    18093.383    778.30737    9.1985007    9.1985007    9.1985007    82.372491 
    5300    302.22075    -10449.37            0   -9549.4082    15995.407     777.3952    9.1949058    9.1949058    9.1949058    77.882568 
    5400    311.97687   -10481.477            0   -9552.4629    16104.875    777.08235    9.1936722    9.1936722    9.1936722     66.55186 
    5500    307.94341   -10476.166            0   -9559.1634    16231.719    777.73706    9.1962534    9.1962534    9.1962534    97.141627 
    5600    305.14204   -10476.264            0   -9567.6026    10257.154    779.33175    9.2025345    9.2025345    9.2025345    99.627851 
    5700    302.37547   -10477.985            0    -9577.563   -10295.147    781.15233    9.2096949    9.2096949    9.2096949    101.15168 
    5800    311.40728   -10515.587            0   -9588.2689    3125.6904    782.41548    9.2146564    9.2146564    9.2146564     73.40402 
    5900    292.84458   -10471.411            0   -9599.3698    -6764.747    783.54776    9.2190993    9.2190993    9.2190993    93.618717 
    6000    293.42167   -10481.311            0   -9607.5515    8456.9878    784.40077    9.2224435    9.2224435    9.2224435    128.13234 
Loop time of 11.3202 on 16 procs for 1000 steps with 1000 atoms

Performance: 7.632 ns/day, 3.145 hours/ns, 88.337 timesteps/s
94.9% CPU use with 16 MPI tasks x no OpenMP threads

MPI task timing breakdown:
Section |  min time  |  avg time  |  max time  |%varavg| %total
---------------------------------------------------------------
Pair    | 1.6351     | 1.7509     | 1.8176     |   3.3 | 15.47
Neigh   | 0.58507    | 0.60623    | 0.63752    |   1.5 |  5.36
Comm    | 0.39182    | 0.46945    | 0.60613    |   7.7 |  4.15
Output  | 5.2957     | 5.4969     | 8.4659     |  32.7 | 48.56
Modify  | 0.020299   | 2.9899     | 3.1914     |  44.3 | 26.41
Other   |            | 0.006888   |            |       |  0.06

Nlocal:    62.5 ave 67 max 57 min
Histogram: 1 0 0 1 4 3 0 4 2 1
Nghost:    1855.19 ave 1876 max 1841 min
Histogram: 3 1 1 3 3 1 2 0 1 1
Neighs:    0 ave 0 max 0 min
Histogram: 16 0 0 0 0 0 0 0 0 0
FullNghs:  18810.8 ave 20186 max 17141 min
Histogram: 1 0 1 2 2 3 3 1 2 1

Total # of neighbors = 300972
Ave neighs/atom = 300.972
Neighbor list builds = 1000
Dangerous builds not checked
Setting up Verlet run ...
  Unit style    : real
  Current step  : 6000
  Time step     : 1
Per MPI rank memory allocation (min/avg/max) = 4.577 | 4.578 | 4.579 Mbytes
Step Temp E_pair E_mol TotEng Press Volume Lx Ly Lz S/CPU 
    6000    293.42167   -10481.311            0   -9607.5515    8456.9878    784.40077    9.2224435    9.2224435    9.2224435            0 
    6100    298.35156   -10503.181            0   -9614.7408    898.65987    785.09384    9.2251589    9.2251589    9.2251589    117.30637 
    6200    300.99505   -10518.256            0   -9621.9439    9976.0814    786.11293    9.2291488    9.2291488    9.2291488    76.762131 
    6300    300.26058   -10521.131            0   -9627.0063    10356.332    787.73343    9.2354861    9.2354861    9.2354861    87.324285 
    6400    295.07626   -10509.233            0   -9630.5463   -2178.1771    790.03242    9.2444619    9.2444619    9.2444619     129.6802 
    6500    294.28989   -10509.941            0   -9633.5959    4870.3014     792.3317    9.2534215    9.2534215    9.2534215    119.04195 
    6600    296.59908   -10519.242            0   -9636.0202   -12649.914    794.13915    9.2604524    9.2604524    9.2604524     85.70651 
    6700    298.72333   -10527.631            0    -9638.084   -19815.877    794.67054    9.2625174    9.2625174    9.2625174    71.452049 
    6800    293.19114   -10510.454            0   -9637.3807   -17348.004    793.59526    9.2583378    9.2583378    9.2583378    77.878378 
    6900     305.4575   -10546.711            0   -9637.1103   -11258.554    791.22349    9.2491053    9.2491053    9.2491053    104.81938 
    7000    302.38727   -10537.166            0   -9636.7079   -8153.0242    788.10652    9.2369439    9.2369439    9.2369439    117.26577 
Loop time of 10.5687 on 16 procs for 1000 steps with 1000 atoms

Performance: 8.175 ns/day, 2.936 hours/ns, 94.619 timesteps/s
95.0% CPU use with 16 MPI tasks x no OpenMP threads

MPI task timing breakdown:
Section |  min time  |  avg time  |  max time  |%varavg| %total
---------------------------------------------------------------
Pair    | 1.6211     | 1.6951     | 1.8106     |   3.7 | 16.04
Neigh   | 0.58708    | 0.60176    | 0.62871    |   1.5 |  5.69
Comm    | 0.33189    | 0.46515    | 0.55267    |   8.5 |  4.40
Output  | 4.4949     | 4.7029     | 7.7793     |  36.6 | 44.50
Modify  | 0.020176   | 3.0969     | 3.3053     |  45.1 | 29.30
Other   |            | 0.006832   |            |       |  0.06

Nlocal:    62.5 ave 68 max 57 min
Histogram: 3 0 1 2 2 2 1 2 1 2
Nghost:    1853.19 ave 1870 max 1836 min
Histogram: 1 2 0 3 3 1 2 1 0 3
Neighs:    0 ave 0 max 0 min
Histogram: 16 0 0 0 0 0 0 0 0 0
FullNghs:  18720.6 ave 20359 max 17102 min
Histogram: 3 0 1 2 3 1 1 2 1 2

Total # of neighbors = 299530
Ave neighs/atom = 299.53
Neighbor list builds = 1000
Dangerous builds not checked
Setting up Verlet run ...
  Unit style    : real
  Current step  : 7000
  Time step     : 1
Per MPI rank memory allocation (min/avg/max) = 4.577 | 4.578 | 4.579 Mbytes
Step Temp E_pair E_mol TotEng Press Volume Lx Ly Lz S/CPU 
    7000    302.38727   -10537.166            0   -9636.7079   -8153.0242    788.10652    9.2369439    9.2369439    9.2369439            0 
    7100    306.48413   -10547.871            0   -9635.2134    220.09646    784.56316    9.2230799    9.2230799    9.2230799    82.135555 
    7200    293.66905   -10506.642            0   -9632.1457    8885.6124    781.48765    9.2110125    9.2110125    9.2110125    60.202417 
    7300    290.60986   -10494.013            0   -9628.6267    14565.409    779.25503    9.2022326    9.2022326    9.2022326    111.06753 
    7400    307.89368   -10541.038            0   -9624.1833    9724.0129    777.83507    9.1966397    9.1966397    9.1966397    121.08922 
    7500    304.65919   -10524.275            0   -9617.0523    6482.1879    777.23408    9.1942705    9.1942705    9.1942705     93.29573 
    7600    299.62367   -10500.644            0    -9608.416    6635.7976    777.35191    9.1947351    9.1947351    9.1947351    75.226782 
    7700    290.76714   -10463.669            0   -9597.8141    16863.013    777.93684    9.1970408    9.1970408    9.1970408    90.824911 
    7800    298.86999   -10476.695            0   -9586.7114   -10364.565    778.83711    9.2005872    9.2005872    9.2005872    110.64899 
    7900     310.8732   -10502.574            0   -9576.8464    5308.5164    779.50402    9.2032126    9.2032126    9.2032126    109.72342 
    8000    298.71644   -10453.883            0   -9564.3563   -694.61229    780.62297    9.2076141    9.2076141    9.2076141    71.808618 
Loop time of 11.3147 on 16 procs for 1000 steps with 1000 atoms

Performance: 7.636 ns/day, 3.143 hours/ns, 88.381 timesteps/s
95.0% CPU use with 16 MPI tasks x no OpenMP threads

MPI task timing breakdown:
Section |  min time  |  avg time  |  max time  |%varavg| %total
---------------------------------------------------------------
Pair    | 1.6653     | 1.7483     | 1.816      |   3.4 | 15.45
Neigh   | 0.59079    | 0.6057     | 0.63297    |   1.3 |  5.35
Comm    | 0.37807    | 0.45402    | 0.55172    |   7.8 |  4.01
Output  | 5.4214     | 5.6152     | 8.4794     |  31.2 | 49.63
Modify  | 0.020077   | 2.8846     | 3.0788     |  43.5 | 25.49
Other   |            | 0.006837   |            |       |  0.06

Nlocal:    62.5 ave 66 max 56 min
Histogram: 2 0 0 0 0 1 4 2 4 3
Nghost:    1864.44 ave 1883 max 1848 min
Histogram: 1 1 3 3 1 2 0 3 1 1
Neighs:    0 ave 0 max 0 min
Histogram: 16 0 0 0 0 0 0 0 0 0
FullNghs:  18898.8 ave 20057 max 16867 min
Histogram: 2 0 0 0 1 1 5 3 2 2

Total # of neighbors = 302380
Ave neighs/atom = 302.38
Neighbor list builds = 1000
Dangerous builds not checked
Setting up Verlet run ...
  Unit style    : real
  Current step  : 8000
  Time step     : 1
Per MPI rank memory allocation (min/avg/max) = 4.577 | 4.578 | 4.579 Mbytes
Step Temp E_pair E_mol TotEng Press Volume Lx Ly Lz S/CPU 
    8000    298.71644   -10453.883            0   -9564.3563   -694.61229    780.62297    9.2076141    9.2076141    9.2076141            0 
    8100     302.0479   -10456.514            0   -9557.0669    3731.5145      781.843    9.2124084    9.2124084    9.2124084    76.731963 
    8200    311.17093   -10478.498            0   -9551.8841   -504.31059    783.38775    9.2184717    9.2184717    9.2184717    107.44057 
    8300    302.97412   -10449.287            0   -9547.0823    14662.693    784.90106    9.2244038    9.2244038    9.2244038     99.24145 
    8400    306.34128   -10457.415            0    -9545.183      3596.31    786.50147     9.230669     9.230669     9.230669    86.687345 
    8500    309.22256   -10467.005            0   -9546.1927    15145.446    787.88883    9.2360934    9.2360934    9.2360934    67.950121 
    8600    308.50485   -10466.292            0   -9547.6172    4281.8418    789.43522     9.242132     9.242132     9.242132    90.179513 
    8700    303.65443    -10454.18            0    -9549.949   -29080.751    790.60815     9.246707     9.246707     9.246707    98.841639 
    8800    310.88579    -10479.31            0   -9553.5451   -21114.096    790.35737    9.2457292    9.2457292    9.2457292    111.01006 
    8900     313.5399   -10493.837            0   -9560.1685   -19264.119    788.83606    9.2397932    9.2397932    9.2397932    73.477083 
    9000    314.21542   -10506.474            0   -9570.7939   -11684.754    786.25007    9.2296854    9.2296854    9.2296854    97.573398 
Loop time of 11.2742 on 16 procs for 1000 steps with 1000 atoms

Performance: 7.664 ns/day, 3.132 hours/ns, 88.698 timesteps/s
94.9% CPU use with 16 MPI tasks x no OpenMP threads

MPI task timing breakdown:
Section |  min time  |  avg time  |  max time  |%varavg| %total
---------------------------------------------------------------
Pair    | 1.6546     | 1.7195     | 1.8332     |   3.3 | 15.25
Neigh   | 0.58906    | 0.60309    | 0.62727    |   1.3 |  5.35
Comm    | 0.35439    | 0.48684    | 0.56669    |   7.4 |  4.32
Output  | 5.4861     | 5.6734     | 8.4372     |  30.0 | 50.32
Modify  | 0.020112   | 2.7845     | 2.9719     |  42.8 | 24.70
Other   |            | 0.006812   |            |       |  0.06

Nlocal:    62.5 ave 68 max 56 min
Histogram: 2 0 1 1 3 4 0 0 1 4
Nghost:    1863.81 ave 1879 max 1848 min
Histogram: 1 0 0 5 3 1 4 0 0 2
Neighs:    0 ave 0 max 0 min
Histogram: 16 0 0 0 0 0 0 0 0 0
FullNghs:  18770.4 ave 20517 max 16850 min
Histogram: 2 0 1 4 1 3 0 1 1 3

Total # of neighbors = 300326
Ave neighs/atom = 300.326
Neighbor list builds = 1000
Dangerous builds not checked
Setting up Verlet run ...
  Unit style    : real
  Current step  : 9000
  Time step     : 1
Per MPI rank memory allocation (min/avg/max) = 4.577 | 4.578 | 4.579 Mbytes
Step Temp E_pair E_mol TotEng Press Volume Lx Ly Lz S/CPU 
    9000    314.21542   -10506.474            0   -9570.7939   -11684.754    786.25007    9.2296854    9.2296854    9.2296854            0 
    9100    300.66622   -10477.735            0   -9582.4019   -4243.7886    783.08324    9.2172771    9.2172771    9.2172771    93.968554 
    9200    304.77387    -10504.65            0   -9597.0856    4599.3823    779.95189    9.2049748    9.2049748    9.2049748    71.172574 
    9300    304.29006   -10518.195            0   -9612.0713    26402.421    777.66724    9.1959782    9.1959782    9.1959782    73.738347 
    9400    299.74281    -10517.31            0   -9624.7275     10022.85    776.64467    9.1919458    9.1919458    9.1919458    76.148827 
    9500    301.33125   -10530.623            0     -9633.31    3540.4296     776.5982    9.1917625    9.1917625    9.1917625    103.36308 
    9600    305.92586   -10548.804            0   -9637.8094    6991.8187    776.76492    9.1924202    9.1924202    9.1924202    96.521145 
    9700    298.33188   -10529.736            0   -9641.3542    10303.993     776.9522    9.1931589    9.1931589    9.1931589    117.22173 
    9800    296.73635   -10527.412            0   -9643.7822   -2721.5863    777.47745    9.1952301    9.1952301    9.1952301    77.260675 
    9900    296.77813   -10528.401            0   -9644.6461    716.76629    778.27213    9.1983619    9.1983619    9.1983619    97.191475 
   10000    286.40932   -10497.029            0   -9644.1509    3672.4833    779.02881     9.201342     9.201342     9.201342    102.91316 
Loop time of 11.2901 on 16 procs for 1000 steps with 1000 atoms

Performance: 7.653 ns/day, 3.136 hours/ns, 88.573 timesteps/s
95.0% CPU use with 16 MPI tasks x no OpenMP threads

MPI task timing breakdown:
Section |  min time  |  avg time  |  max time  |%varavg| %total
---------------------------------------------------------------
Pair    | 1.6713     | 1.7548     | 1.8429     |   3.7 | 15.54
Neigh   | 0.59213    | 0.6069     | 0.62864    |   1.3 |  5.38
Comm    | 0.38352    | 0.47943    | 0.57754    |   8.1 |  4.25
Output  | 5.2041     | 5.4083     | 8.4212     |  33.5 | 47.90
Modify  | 0.020088   | 3.0338     | 3.2381     |  44.7 | 26.87
Other   |            | 0.006918   |            |       |  0.06

Nlocal:    62.5 ave 69 max 58 min
Histogram: 4 2 0 2 1 3 1 1 1 1
Nghost:    1877.94 ave 1908 max 1856 min
Histogram: 2 3 1 2 2 1 3 1 0 1
Neighs:    0 ave 0 max 0 min
Histogram: 16 0 0 0 0 0 0 0 0 0
FullNghs:  18961.4 ave 20789 max 17496 min
Histogram: 3 2 1 0 3 2 1 1 2 1

Total # of neighbors = 303382
Ave neighs/atom = 303.382
Neighbor list builds = 1000
Dangerous builds not checked
Setting up Verlet run ...
  Unit style    : real
  Current step  : 10000
  Time step     : 1
Per MPI rank memory allocation (min/avg/max) = 4.577 | 4.579 | 4.579 Mbytes
Step Temp E_pair E_mol TotEng Press Volume Lx Ly Lz S/CPU 
   10000    286.40932   -10497.029            0   -9644.1509    3672.4833    779.02881     9.201342     9.201342     9.201342            0 
   10100    288.86014   -10503.313            0   -9643.1363    3202.1807    779.70349    9.2039975    9.2039975    9.2039975    89.524124 
   10200    294.77777   -10518.415            0   -9640.6167   -3376.7424    780.48524    9.2070725    9.2070725    9.2070725    82.799391 
   10300    287.01256   -10490.919            0   -9636.2447   -433.60946     781.4653    9.2109247    9.2109247    9.2109247     77.57406 
   10400    291.92539   -10499.398            0    -9630.094    384.14835    782.48575    9.2149322    9.2149322    9.2149322    94.483944 
   10500    290.58053    -10486.45            0   -9621.1503   -11231.999    783.17985    9.2176561    9.2176561    9.2176561    82.209647 
   10600    292.28103   -10480.187            0   -9609.8238   -113.33277    783.34979    9.2183228    9.2183228    9.2183228    99.731988 
   10700    316.79461   -10543.148            0   -9599.7876    377.92756    783.47693    9.2188215    9.2188215    9.2188215    80.618993 
   10800    304.62851   -10496.336            0   -9589.2046    6816.6357    783.62826     9.219415     9.219415     9.219415    97.195462 
   10900    305.97552   -10493.936            0   -9582.7929    1217.4408    783.86804    9.2203552    9.2203552    9.2203552    106.13338 
   11000    294.01981   -10452.745            0    -9577.204   -3903.8633    783.90668    9.2205067    9.2205067    9.2205067    124.98331 
Loop time of 10.9029 on 16 procs for 1000 steps with 1000 atoms

Performance: 7.924 ns/day, 3.029 hours/ns, 91.719 timesteps/s
95.0% CPU use with 16 MPI tasks x no OpenMP threads

MPI task timing breakdown:
Section |  min time  |  avg time  |  max time  |%varavg| %total
---------------------------------------------------------------
Pair    | 1.6789     | 1.7383     | 1.8332     |   2.9 | 15.94
Neigh   | 0.59319    | 0.60604    | 0.64277    |   1.6 |  5.56
Comm    | 0.34784    | 0.45818    | 0.52679    |   7.3 |  4.20
Output  | 5.157      | 5.342      | 8.0728     |  30.5 | 49.00
Modify  | 0.020139   | 2.7515     | 2.9367     |  42.5 | 25.24
Other   |            | 0.006849   |            |       |  0.06

Nlocal:    62.5 ave 71 max 55 min
Histogram: 1 1 0 5 0 6 0 2 0 1
Nghost:    1862.81 ave 1878 max 1852 min
Histogram: 2 2 3 1 1 3 1 1 0 2
Neighs:    0 ave 0 max 0 min
Histogram: 16 0 0 0 0 0 0 0 0 0
FullNghs:  18822.6 ave 21587 max 16627 min
Histogram: 2 0 2 3 4 2 2 0 0 1

Total # of neighbors = 301162
Ave neighs/atom = 301.162
Neighbor list builds = 1000
Dangerous builds not checked
Setting up Verlet run ...
  Unit style    : real
  Current step  : 11000
  Time step     : 1
Per MPI rank memory allocation (min/avg/max) = 4.577 | 4.579 | 4.579 Mbytes
Step Temp E_pair E_mol TotEng Press Volume Lx Ly Lz S/CPU 
   11000    294.01981   -10452.745            0    -9577.204   -3903.8633    783.90668    9.2205067    9.2205067    9.2205067            0 
   11100    301.09505   -10471.472            0   -9574.8624     1703.598    783.76773    9.2199619    9.2199619    9.2199619    76.428694 
   11200     306.7389   -10487.773            0   -9574.3566    3200.9076    783.51343    9.2189646    9.2189646    9.2189646    89.580652 
   11300    306.48031   -10485.585            0   -9572.9389    2313.2916    783.31063    9.2181691    9.2181691    9.2181691    102.97926 
   11400    293.57635   -10446.324            0   -9572.1041   -17897.681    783.05739    9.2171757    9.2171757    9.2171757    98.791029 
   11500    303.34424   -10476.045            0   -9572.7373   -12038.347    782.20084    9.2138137    9.2138137    9.2138137    89.073621 
   11600    299.22073   -10463.925            0   -9572.8972    5392.5927    780.94996    9.2088995    9.2088995    9.2088995    84.385139 
   11700    296.93101   -10457.267            0    -9573.057    10566.934    779.41835    9.2028754    9.2028754    9.2028754    103.27199 
   11800     299.6987   -10464.939            0   -9572.4873   -2713.9289    778.33959    9.1986277    9.1986277    9.1986277    99.712918 
   11900    304.78762    -10482.19            0   -9574.5848    15397.397    777.75245    9.1963141    9.1963141    9.1963141    105.32554 
   12000    305.06552   -10485.899            0   -9577.4658    14179.216      778.025    9.1973882    9.1973882    9.1973882    123.36362 
Loop time of 10.447 on 16 procs for 1000 steps with 1000 atoms

Performance: 8.270 ns/day, 2.902 hours/ns, 95.721 timesteps/s
95.0% CPU use with 16 MPI tasks x no OpenMP threads

MPI task timing breakdown:
Section |  min time  |  avg time  |  max time  |%varavg| %total
---------------------------------------------------------------
Pair    | 1.6809     | 1.7428     | 1.8079     |   2.6 | 16.68
Neigh   | 0.58824    | 0.60551    | 0.6316     |   1.3 |  5.80
Comm    | 0.3822     | 0.45773    | 0.5377     |   6.3 |  4.38
Output  | 4.4306     | 4.6324     | 7.6137     |  35.8 | 44.34
Modify  | 0.019947   | 3.0018     | 3.2036     |  44.4 | 28.73
Other   |            | 0.006846   |            |       |  0.07

Nlocal:    62.5 ave 70 max 58 min
Histogram: 2 2 3 2 1 5 0 0 0 1
Nghost:    1863.31 ave 1875 max 1850 min
Histogram: 1 0 2 4 1 1 2 1 2 2
Neighs:    0 ave 0 max 0 min
Histogram: 16 0 0 0 0 0 0 0 0 0
FullNghs:  18962.6 ave 21248 max 17645 min
Histogram: 2 3 2 3 0 5 0 0 0 1

Total # of neighbors = 303402
Ave neighs/atom = 303.402
Neighbor list builds = 1000
Dangerous builds not checked
Setting up Verlet run ...
  Unit style    : real
  Current step  : 12000
  Time step     : 1
Per MPI rank memory allocation (min/avg/max) = 4.577 | 4.579 | 4.579 Mbytes
Step Temp E_pair E_mol TotEng Press Volume Lx Ly Lz S/CPU 
   12000    305.06552   -10485.899            0   -9577.4658    14179.216      778.025    9.1973882    9.1973882    9.1973882            0 
   12100    297.49315   -10467.961            0   -9582.0769      8962.41    779.40448    9.2028208    9.2028208    9.2028208    75.023957 
   12200    297.51785   -10475.241            0   -9589.2834   -1552.5521    781.37778    9.2105809    9.2105809    9.2105809    96.408044 
   12300    305.37517   -10509.402            0   -9600.0469    10630.885    783.65699    9.2195277    9.2195277    9.2195277    102.75522 
   12400    298.61549   -10505.178            0   -9615.9516   -8565.0444    785.85371    9.2281342    9.2281342    9.2281342      99.9848 
   12500    295.28285   -10512.416            0   -9633.1137    6657.9658    787.70863    9.2353892    9.2353892    9.2353892    82.580074 
   12600    296.43648   -10531.895            0   -9649.1581   -16258.886    789.41485    9.2420525    9.2420525    9.2420525    82.561268 
   12700    296.76117   -10542.945            0   -9659.2414   -21557.088     790.3766    9.2458042    9.2458042    9.2458042    112.48819 
   12800    273.25706   -10475.936            0   -9662.2229   -28727.415    790.30682    9.2455321    9.2455321    9.2455321    98.995339 
   12900     274.9787   -10481.925            0   -9663.0853   -16742.897    789.27459    9.2415051    9.2415051    9.2415051     108.5321 
   13000     293.2416   -10535.757            0   -9662.5338    1200.9598    787.70471    9.2353739    9.2353739    9.2353739    64.430333 
Loop time of 11.1383 on 16 procs for 1000 steps with 1000 atoms

Performance: 7.757 ns/day, 3.094 hours/ns, 89.781 timesteps/s
95.0% CPU use with 16 MPI tasks x no OpenMP threads

MPI task timing breakdown:
Section |  min time  |  avg time  |  max time  |%varavg| %total
---------------------------------------------------------------
Pair    | 1.6851     | 1.7175     | 1.7695     |   2.1 | 15.42
Neigh   | 0.59618    | 0.60487    | 0.622      |   0.9 |  5.43
Comm    | 0.39252    | 0.45491    | 0.49405    |   4.9 |  4.08
Output  | 4.8518     | 5.0722     | 8.3336     |  37.4 | 45.54
Modify  | 0.020027   | 3.282      | 3.5025     |  46.5 | 29.47
Other   |            | 0.006834   |            |       |  0.06

Nlocal:    62.5 ave 70 max 58 min
Histogram: 4 1 2 1 3 2 0 2 0 1
Nghost:    1863.88 ave 1877 max 1855 min
Histogram: 4 3 0 0 3 2 0 1 0 3
Neighs:    0 ave 0 max 0 min
Histogram: 16 0 0 0 0 0 0 0 0 0
FullNghs:  18751.5 ave 20917 max 17332 min
Histogram: 4 0 2 2 3 2 0 1 1 1

Total # of neighbors = 300024
Ave neighs/atom = 300.024
Neighbor list builds = 1000
Dangerous builds not checked
Setting up Verlet run ...
  Unit style    : real
  Current step  : 13000
  Time step     : 1
Per MPI rank memory allocation (min/avg/max) = 4.577 | 4.579 | 4.579 Mbytes
Step Temp E_pair E_mol TotEng Press Volume Lx Ly Lz S/CPU 
   13000     293.2416   -10535.757            0   -9662.5338    1200.9598    787.70471    9.2353739    9.2353739    9.2353739            0 
   13100    279.13119   -10489.806            0   -9658.6011   -2947.1022    785.87407    9.2282139    9.2282139    9.2282139    125.88955 
   13200    283.55986   -10497.849            0   -9653.4566   -9195.3605    783.96273    9.2207265    9.2207265    9.2207265    121.51431 
   13300    294.61504   -10525.712            0   -9648.3987    6697.2871    781.99201    9.2129936    9.2129936    9.2129936    103.55962 
   13400    297.99852   -10528.645            0   -9641.2563    9235.7483    780.34913    9.2065373    9.2065373    9.2065373    106.18708 
   13500    294.59667    -10511.21            0   -9633.9512    5073.1492    779.17596    9.2019213    9.2019213    9.2019213    62.739976 
   13600    301.56289   -10527.881            0   -9629.8785    12556.585    778.58838    9.1996077    9.1996077    9.1996077    91.217107 
   13700    301.33227   -10522.189            0   -9624.8727    11087.357    778.58056    9.1995768    9.1995768    9.1995768     93.65638 
   13800     309.0774   -10541.127            0   -9620.7476    10092.309     778.9934    9.2012026    9.2012026    9.2012026    85.600679 
   13900    306.68178   -10529.723            0   -9616.4769    4381.5251    780.25462    9.2061656    9.2061656    9.2061656    80.039075 
   14000    299.19701   -10504.463            0   -9613.5054    26830.939    782.27955    9.2141227    9.2141227    9.2141227    96.643253 
Loop time of 10.7349 on 16 procs for 1000 steps with 1000 atoms

Performance: 8.049 ns/day, 2.982 hours/ns, 93.154 timesteps/s
95.0% CPU use with 16 MPI tasks x no OpenMP threads

MPI task timing breakdown:
Section |  min time  |  avg time  |  max time  |%varavg| %total
---------------------------------------------------------------
Pair    | 1.6775     | 1.7384     | 1.8345     |   3.1 | 16.19
Neigh   | 0.59032    | 0.60523    | 0.63269    |   1.5 |  5.64
Comm    | 0.33817    | 0.45155    | 0.52496    |   7.6 |  4.21
Output  | 4.9982     | 5.183      | 7.9124     |  31.0 | 48.28
Modify  | 0.020017   | 2.7499     | 2.9348     |  42.5 | 25.62
Other   |            | 0.006881   |            |       |  0.06

Nlocal:    62.5 ave 68 max 57 min
Histogram: 3 1 1 2 2 0 0 2 3 2
Nghost:    1872.38 ave 1899 max 1841 min
Histogram: 1 0 1 1 3 3 4 1 1 1
Neighs:    0 ave 0 max 0 min
Histogram: 16 0 0 0 0 0 0 0 0 0
FullNghs:  18879.8 ave 20577 max 17149 min
Histogram: 3 1 0 3 2 0 0 2 3 2

Total # of neighbors = 302076
Ave neighs/atom = 302.076
Neighbor list builds = 1000
Dangerous builds not checked
Setting up Verlet run ...
  Unit style    : real
  Current step  : 14000
  Time step     : 1
Per MPI rank memory allocation (min/avg/max) = 4.577 | 4.579 | 4.579 Mbytes
Step Temp E_pair E_mol TotEng Press Volume Lx Ly Lz S/CPU 
   14000    299.19701   -10504.463            0   -9613.5054    26830.939    782.27955    9.2141227    9.2141227    9.2141227            0 
   14100    302.69687   -10512.036            0   -9610.6561    12849.225     785.0877    9.2251349    9.2251349    9.2251349    103.19914 
   14200    299.17017   -10498.978            0   -9608.1001   -2078.4058    788.03903    9.2366802    9.2366802    9.2366802    89.668766 
   14300    297.88699    -10491.08            0   -9604.0236   -12010.663    790.93737    9.2479903    9.2479903    9.2479903    107.24096 
   14400    294.01205    -10474.09            0   -9598.5718   -23070.984    793.10415    9.2564276    9.2564276    9.2564276    78.947848 
   14500    288.35379   -10449.272            0   -9590.6041    -4764.245    794.11018    9.2603398    9.2603398    9.2603398    79.485975 
   14600    296.78343   -10463.774            0   -9580.0032   -7070.6736    794.19808    9.2606814    9.2606814    9.2606814     70.65505 
   14700    297.04035   -10450.184            0   -9565.6484   -17554.644    793.39708     9.257567     9.257567     9.257567    101.20151 
   14800    302.56856   -10451.888            0     -9550.89   -11800.213    792.10481    9.2525381    9.2525381    9.2525381     92.96219 
   14900    309.55491   -10459.939            0   -9538.1375   -8226.0833    790.24844    9.2453044    9.2453044    9.2453044    98.645185 
   15000    310.63446   -10452.445            0   -9527.4288   -4826.9254    787.66916    9.2352349    9.2352349    9.2352349     85.67958 
Loop time of 11.2015 on 16 procs for 1000 steps with 1000 atoms

Performance: 7.713 ns/day, 3.112 hours/ns, 89.274 timesteps/s
95.0% CPU use with 16 MPI tasks x no OpenMP threads

MPI task timing breakdown:
Section |  min time  |  avg time  |  max time  |%varavg| %total
---------------------------------------------------------------
Pair    | 1.6116     | 1.6976     | 1.7723     |   3.3 | 15.16
Neigh   | 0.57935    | 0.60164    | 0.63654    |   1.6 |  5.37
Comm    | 0.33384    | 0.43568    | 0.54361    |   7.9 |  3.89
Output  | 5.5873     | 5.7682     | 8.439      |  28.7 | 51.50
Modify  | 0.020083   | 2.6915     | 2.8726     |  42.0 | 24.03
Other   |            | 0.006788   |            |       |  0.06

Nlocal:    62.5 ave 68 max 58 min
Histogram: 1 0 1 4 2 4 2 0 1 1
Nghost:    1857.19 ave 1870 max 1847 min
Histogram: 2 0 3 2 3 1 3 0 1 1
Neighs:    0 ave 0 max 0 min
Histogram: 16 0 0 0 0 0 0 0 0 0
FullNghs:  18744.9 ave 20388 max 17475 min
Histogram: 1 1 2 2 5 2 1 0 1 1

Total # of neighbors = 299918
Ave neighs/atom = 299.918
Neighbor list builds = 1000
Dangerous builds not checked
Setting up Verlet run ...
  Unit style    : real
  Current step  : 15000
  Time step     : 1
Per MPI rank memory allocation (min/avg/max) = 4.577 | 4.579 | 4.579 Mbytes
Step Temp E_pair E_mol TotEng Press Volume Lx Ly Lz S/CPU 
   15000    310.63446   -10452.445            0   -9527.4288   -4826.9254    787.66916    9.2352349    9.2352349    9.2352349            0 
   15100    316.45659    -10465.45            0   -9523.0962   -133.83319     785.0546    9.2250052    9.2250052    9.2250052     91.16965 
   15200    320.25242   -10474.065            0   -9520.4085    15565.328    782.51627     9.215052     9.215052     9.215052    59.049701 
   15300    318.68103   -10471.486            0   -9522.5084    19931.119    780.55779    9.2073578    9.2073578    9.2073578    105.33204 
   15400    310.87143   -10452.289            0   -9526.5667    8438.9383     779.5114    9.2032416    9.2032416    9.2032416    105.27251 
   15500    308.30652    -10450.19            0   -9532.1056    4149.2727    779.08428    9.2015604    9.2015604    9.2015604    110.54221 
   15600    298.74979   -10427.934            0   -9538.3077    13831.128    779.16101    9.2018624    9.2018624    9.2018624    79.458634 
   15700    303.05363   -10448.087            0   -9545.6455    4538.2921    779.80891    9.2044123    9.2044123    9.2044123    80.506774 
   15800      303.823    -10458.55            0   -9553.8168    4688.4066    780.51203    9.2071779    9.2071779    9.2071779    83.512269 
   15900    310.04519   -10485.968            0   -9562.7064   -9554.9552    781.15905    9.2097214    9.2097214    9.2097214    90.206203 
   16000     309.8649   -10492.473            0   -9569.7484    6347.4286    781.79303    9.2122121    9.2122121    9.2122121    93.505746 
Loop time of 11.4704 on 16 procs for 1000 steps with 1000 atoms

Performance: 7.532 ns/day, 3.186 hours/ns, 87.181 timesteps/s
95.0% CPU use with 16 MPI tasks x no OpenMP threads

MPI task timing breakdown:
Section |  min time  |  avg time  |  max time  |%varavg| %total
---------------------------------------------------------------
Pair    | 1.659      | 1.7471     | 1.8009     |   3.2 | 15.23
Neigh   | 0.58441    | 0.60586    | 0.63343    |   1.3 |  5.28
Comm    | 0.42377    | 0.48748    | 0.59694    |   7.2 |  4.25
Output  | 5.6328     | 5.821      | 8.6024     |  29.8 | 50.75
Modify  | 0.020045   | 2.8021     | 2.9907     |  42.9 | 24.43
Other   |            | 0.006865   |            |       |  0.06

Nlocal:    62.5 ave 66 max 57 min
Histogram: 1 0 1 1 2 2 4 2 0 3
Nghost:    1861.69 ave 1892 max 1832 min
Histogram: 3 0 1 0 4 2 1 2 2 1
Neighs:    0 ave 0 max 0 min
Histogram: 16 0 0 0 0 0 0 0 0 0
FullNghs:  18883.2 ave 20149 max 16990 min
Histogram: 1 0 1 1 1 3 4 2 0 3

Total # of neighbors = 302132
Ave neighs/atom = 302.132
Neighbor list builds = 1000
Dangerous builds not checked
Setting up Verlet run ...
  Unit style    : real
  Current step  : 16000
  Time step     : 1
Per MPI rank memory allocation (min/avg/max) = 4.577 | 4.579 | 4.579 Mbytes
Step Temp E_pair E_mol TotEng Press Volume Lx Ly Lz S/CPU 
   16000     309.8649   -10492.473            0   -9569.7484    6347.4286    781.79303    9.2122121    9.2122121    9.2122121            0 
   16100    307.39985   -10493.926            0   -9578.5416    5070.4153      782.774    9.2160636    9.2160636    9.2160636    71.366213 
   16200    311.35742   -10514.458            0   -9587.2886    14295.421    784.01195    9.2209194    9.2209194    9.2209194    86.164242 
   16300    325.59964   -10566.712            0   -9597.1319     229.6721    785.70383    9.2275475    9.2275475    9.2275475    99.179492 
   16400    308.97954    -10525.32            0   -9605.2317   -1093.5002    787.32652    9.2338956    9.2338956    9.2338956    86.718663 
   16500    297.78069   -10499.294            0   -9612.5538    8029.6467    788.36634    9.2379589    9.2379589    9.2379589    72.622628 
   16600    303.13648   -10521.048            0   -9618.3592   -12492.122    789.36982    9.2418768    9.2418768    9.2418768    116.81373 
   16700    294.77171   -10500.302            0   -9622.5221   -12661.282    790.19189    9.2450839    9.2450839    9.2450839    98.457379 
   16800     303.3088   -10529.005            0   -9625.8031   -29938.942    790.48146     9.246213     9.246213     9.246213    84.364543 
   16900    295.78906   -10508.299            0   -9627.4896   -4828.4114     789.5875    9.2427262    9.2427262    9.2427262    85.790556 
   17000    295.46084   -10508.055            0   -9628.2227   -7368.1711    787.72173    9.2354404    9.2354404    9.2354404    77.669761 
Loop time of 11.6104 on 16 procs for 1000 steps with 1000 atoms

Performance: 7.442 ns/day, 3.225 hours/ns, 86.129 timesteps/s
94.9% CPU use with 16 MPI tasks x no OpenMP threads

MPI task timing breakdown:
Section |  min time  |  avg time  |  max time  |%varavg| %total
---------------------------------------------------------------
Pair    | 1.6335     | 1.7122     | 1.7905     |   3.1 | 14.75
Neigh   | 0.5887     | 0.6032     | 0.61954    |   1.2 |  5.20
Comm    | 0.36199    | 0.44844    | 0.54171    |   7.1 |  3.86
Output  | 5.6486     | 5.8495     | 8.8193     |  31.7 | 50.38
Modify  | 0.019924   | 2.9902     | 3.1913     |  44.4 | 25.75
Other   |            | 0.00685    |            |       |  0.06

Nlocal:    62.5 ave 70 max 57 min
Histogram: 2 0 2 6 1 1 0 2 1 1
Nghost:    1856.75 ave 1875 max 1846 min
Histogram: 2 3 1 5 2 0 0 1 1 1
Neighs:    0 ave 0 max 0 min
Histogram: 16 0 0 0 0 0 0 0 0 0
FullNghs:  18708.2 ave 20853 max 16963 min
Histogram: 2 0 2 5 1 2 0 2 1 1

Total # of neighbors = 299332
Ave neighs/atom = 299.332
Neighbor list builds = 1000
Dangerous builds not checked
Setting up Verlet run ...
  Unit style    : real
  Current step  : 17000
  Time step     : 1
Per MPI rank memory allocation (min/avg/max) = 4.577 | 4.579 | 4.579 Mbytes
Step Temp E_pair E_mol TotEng Press Volume Lx Ly Lz S/CPU 
   17000    295.46084   -10508.055            0   -9628.2227   -7368.1711    787.72173    9.2354404    9.2354404    9.2354404            0 
   17100    290.45877   -10492.096            0   -9627.1593    1410.4851    785.34785    9.2261537    9.2261537    9.2261537    85.562347 
   17200    288.06109   -10481.885            0   -9624.0882    1200.3355    783.01251    9.2169996    9.2169996    9.2169996    104.85814 
   17300    304.90113   -10526.471            0   -9618.5277    4669.2014    780.95713    9.2089277    9.2089277    9.2089277    80.889414 
   17400    308.18501    -10529.41            0   -9611.6877    9176.4413    779.27305    9.2023035    9.2023035    9.2023035    93.956318 
   17500    303.53721   -10508.799            0   -9604.9171    14689.416    778.31775    9.1985416    9.1985416    9.1985416     94.49246 
   17600    305.13394   -10505.189            0   -9596.5526    20181.391     778.4157    9.1989275    9.1989275    9.1989275    115.16779 
   17700    302.24553   -10489.796            0   -9589.7601    -2776.458    779.51689    9.2032632    9.2032632    9.2032632    107.85558 
   17800    305.79694   -10495.022            0   -9584.4112    3277.0498    780.80001    9.2083101    9.2083101    9.2083101    88.090472 
   17900    303.81651   -10483.472            0   -9578.7583    3148.9656    781.97036    9.2129086    9.2129086    9.2129086    83.120498 
   18000    300.88704   -10469.301            0   -9573.3108    9811.9473    782.89927    9.2165552    9.2165552    9.2165552    92.135488 
Loop time of 10.7004 on 16 procs for 1000 steps with 1000 atoms

Performance: 8.074 ns/day, 2.972 hours/ns, 93.455 timesteps/s
95.0% CPU use with 16 MPI tasks x no OpenMP threads

MPI task timing breakdown:
Section |  min time  |  avg time  |  max time  |%varavg| %total
---------------------------------------------------------------
Pair    | 1.6226     | 1.7438     | 1.8403     |   4.2 | 16.30
Neigh   | 0.58323    | 0.60582    | 0.62027    |   1.3 |  5.66
Comm    | 0.35525    | 0.46548    | 0.60922    |   9.5 |  4.35
Output  | 4.8938     | 5.0816     | 7.8579     |  31.8 | 47.49
Modify  | 0.019927   | 2.7968     | 2.9849     |  42.9 | 26.14
Other   |            | 0.006849   |            |       |  0.06

Nlocal:    62.5 ave 69 max 58 min
Histogram: 3 1 3 0 5 0 1 2 0 1
Nghost:    1858.88 ave 1887 max 1836 min
Histogram: 1 3 1 3 1 3 2 0 0 2
Neighs:    0 ave 0 max 0 min
Histogram: 16 0 0 0 0 0 0 0 0 0
FullNghs:  18845.9 ave 20888 max 17536 min
Histogram: 3 1 2 2 4 1 1 1 0 1

Total # of neighbors = 301534
Ave neighs/atom = 301.534
Neighbor list builds = 1000
Dangerous builds not checked
Setting up Verlet run ...
  Unit style    : real
  Current step  : 18000
  Time step     : 1
Per MPI rank memory allocation (min/avg/max) = 4.577 | 4.579 | 4.579 Mbytes
Step Temp E_pair E_mol TotEng Press Volume Lx Ly Lz S/CPU 
   18000    300.88704   -10469.301            0   -9573.3108    9811.9473    782.89927    9.2165552    9.2165552    9.2165552            0 
   18100    297.17935   -10452.038            0   -9567.0882    2254.6177    783.95641    9.2207017    9.2207017    9.2207017    92.379291 
   18200    301.75776   -10459.524            0   -9560.9406   -1551.4115    785.09792    9.2251749    9.2251749    9.2251749    66.064824 
   18300    304.07029    -10457.02            0   -9551.5505   -10332.454    786.11861     9.229171     9.229171     9.229171    120.91276 
   18400     301.7057   -10438.508            0   -9540.0799    3845.0354    786.81689    9.2319028    9.2319028    9.2319028    107.19092 
   18500    314.92687   -10465.027            0   -9527.2282   -2616.4155    787.19297    9.2333735    9.2333735    9.2333735    94.877565 
   18600    321.69809   -10473.105            0   -9515.1428   -853.96429    787.17445    9.2333011    9.2333011    9.2333011    84.418083 
   18700    318.30945   -10453.283            0   -9505.4116   -6998.0608    786.97288    9.2325129    9.2325129    9.2325129    70.283891 
   18800    316.65155   -10443.116            0   -9500.1818   -4628.9305    786.85493    9.2320516    9.2320516    9.2320516    95.410345 
   18900    307.01318   -10411.098            0   -9496.8652    4618.4971    786.86764    9.2321013    9.2321013    9.2321013    96.378243 
   19000    313.90916   -10433.303            0   -9498.5348   -4936.3222    787.15142     9.233211     9.233211     9.233211    81.321659 
Loop time of 11.3329 on 16 procs for 1000 steps with 1000 atoms

Performance: 7.624 ns/day, 3.148 hours/ns, 88.239 timesteps/s
95.0% CPU use with 16 MPI tasks x no OpenMP threads

MPI task timing breakdown:
Section |  min time  |  avg time  |  max time  |%varavg| %total
---------------------------------------------------------------
Pair    | 1.5853     | 1.722      | 1.8145     |   3.7 | 15.19
Neigh   | 0.58333    | 0.60367    | 0.62066    |   1.4 |  5.33
Comm    | 0.37036    | 0.47552    | 0.63234    |   8.3 |  4.20
Output  | 5.3724     | 5.5708     | 8.5043     |  32.1 | 49.16
Modify  | 0.019965   | 2.9541     | 3.1527     |  44.1 | 26.07
Other   |            | 0.006828   |            |       |  0.06

Nlocal:    62.5 ave 67 max 53 min
Histogram: 1 0 0 0 1 4 0 6 0 4
Nghost:    1855.56 ave 1883 max 1827 min
Histogram: 3 0 2 2 1 0 3 1 1 3
Neighs:    0 ave 0 max 0 min
Histogram: 16 0 0 0 0 0 0 0 0 0
FullNghs:  18739.5 ave 20429 max 15556 min
Histogram: 1 0 0 0 3 2 2 4 1 3

Total # of neighbors = 299832
Ave neighs/atom = 299.832
Neighbor list builds = 1000
Dangerous builds not checked
Setting up Verlet run ...
  Unit style    : real
  Current step  : 19000
  Time step     : 1
Per MPI rank memory allocation (min/avg/max) = 4.577 | 4.579 | 4.579 Mbytes
Step Temp E_pair E_mol TotEng Press Volume Lx Ly Lz S/CPU 
   19000    313.90916   -10433.303            0   -9498.5348   -4936.3222    787.15142     9.233211     9.233211     9.233211            0 
   19100    315.95678    -10444.07            0    -9503.205   -6553.1781    787.49061    9.2345371    9.2345371    9.2345371    70.713726 
   19200    312.35647   -10440.546            0   -9510.4018    5203.7846    787.79448    9.2357247    9.2357247    9.2357247    96.584612 
   19300    309.70711   -10443.285            0   -9521.0299    5172.3101    788.32866    9.2378117    9.2378117    9.2378117    95.148702 
   19400    316.20138   -10476.045            0   -9534.4511    2033.8894    789.23611    9.2413549    9.2413549    9.2413549    99.345427 
   19500    303.66639   -10450.571            0   -9546.3042    11049.144    790.32713    9.2456113    9.2456113    9.2456113    123.19275 
   19600    308.82991   -10478.347            0   -9558.7039   -4132.8913    791.59488    9.2505522    9.2505522    9.2505522    70.058073 
   19700    295.09499   -10445.189            0   -9566.4461   -2768.1304    792.67674    9.2547645    9.2547645    9.2547645    98.601459 
   19800    296.12278   -10454.005            0   -9572.2018   -3862.8429     793.4463    9.2577585    9.2577585    9.2577585    112.96391 
   19900    301.08385   -10473.303            0   -9576.7264    -10654.96    793.79696    9.2591221    9.2591221    9.2591221    109.25423 
   20000    317.16399   -10524.489            0   -9580.0291   -17160.494    793.50395    9.2579827    9.2579827    9.2579827    75.500295 
Loop time of 10.8854 on 16 procs for 1000 steps with 1000 atoms

Performance: 7.937 ns/day, 3.024 hours/ns, 91.866 timesteps/s
95.0% CPU use with 16 MPI tasks x no OpenMP threads

MPI task timing breakdown:
Section |  min time  |  avg time  |  max time  |%varavg| %total
---------------------------------------------------------------
Pair    | 1.624      | 1.6987     | 1.7867     |   3.2 | 15.61
Neigh   | 0.58085    | 0.60202    | 0.62473    |   1.4 |  5.53
Comm    | 0.36208    | 0.46107    | 0.55775    |   7.5 |  4.24
Output  | 4.577      | 4.7996     | 8.0963     |  38.9 | 44.09
Modify  | 0.019812   | 3.3172     | 3.5402     |  46.7 | 30.47
Other   |            | 0.006762   |            |       |  0.06

Nlocal:    62.5 ave 67 max 58 min
Histogram: 1 0 2 1 6 2 1 0 2 1
Nghost:    1837.94 ave 1861 max 1816 min
Histogram: 1 3 0 1 2 3 2 2 1 1
Neighs:    0 ave 0 max 0 min
Histogram: 16 0 0 0 0 0 0 0 0 0
FullNghs:  18606.5 ave 19782 max 17162 min
Histogram: 1 0 2 1 3 3 2 1 0 3

Total # of neighbors = 297704
Ave neighs/atom = 297.704
Neighbor list builds = 1000
Dangerous builds not checked
Setting up Verlet run ...
  Unit style    : real
  Current step  : 20000
  Time step     : 1
Per MPI rank memory allocation (min/avg/max) = 4.577 | 4.579 | 4.579 Mbytes
Step Temp E_pair E_mol TotEng Press Volume Lx Ly Lz S/CPU 
   20000    317.16399   -10524.489            0   -9580.0291   -17160.494    793.50395    9.2579827    9.2579827    9.2579827            0 
   20100    305.64884   -10492.389            0   -9582.2189    -23297.51    792.01195    9.2521766    9.2521766    9.2521766    101.27685 
   20200    305.54793   -10495.394            0   -9585.5242   -4549.0361    789.32286    9.2416935    9.2416935    9.2416935    94.006277 
   20300    315.77968   -10528.424            0   -9588.0862    852.38324    786.24483    9.2296649    9.2296649    9.2296649    107.93365 
   20400    304.14591   -10495.611            0   -9589.9159    1838.6805    783.55595    9.2191314    9.2191314    9.2191314    106.27794 
   20500    304.20918   -10499.362            0   -9593.4794     961.0287    781.28009     9.210197     9.210197     9.210197    65.942362 
   20600    309.40522   -10520.047            0    -9598.691    18278.241    779.64105    9.2037518    9.2037518    9.2037518    101.03624 
   20700    291.20659   -10471.627            0    -9604.463    16841.354    778.79061    9.2004041    9.2004041    9.2004041    98.350099 
   20800    298.12884   -10499.825            0   -9612.0483    17206.978    778.76528    9.2003043    9.2003043    9.2003043    106.84047 
   20900    304.84304   -10528.835            0   -9621.0642     11361.54    779.67467    9.2038841    9.2038841    9.2038841    82.364598 
   21000    290.33436   -10493.269            0    -9628.703   -888.72628    781.12613    9.2095919    9.2095919    9.2095919     74.14715 
Loop time of 10.9403 on 16 procs for 1000 steps with 1000 atoms

Performance: 7.897 ns/day, 3.039 hours/ns, 91.405 timesteps/s
95.0% CPU use with 16 MPI tasks x no OpenMP threads

MPI task timing breakdown:
Section |  min time  |  avg time  |  max time  |%varavg| %total
---------------------------------------------------------------
Pair    | 1.6589     | 1.7298     | 1.8074     |   2.9 | 15.81
Neigh   | 0.59203    | 0.60517    | 0.64129    |   1.4 |  5.53
Comm    | 0.34017    | 0.45331    | 0.53714    |   7.1 |  4.14
Output  | 4.9346     | 5.1366     | 8.1244     |  34.0 | 46.95
Modify  | 0.019953   | 3.0086     | 3.2108     |  44.5 | 27.50
Other   |            | 0.006821   |            |       |  0.06

Nlocal:    62.5 ave 69 max 55 min
Histogram: 1 0 2 2 3 1 1 3 1 2
Nghost:    1860.19 ave 1881 max 1836 min
Histogram: 1 2 3 0 1 2 2 0 1 4
Neighs:    0 ave 0 max 0 min
Histogram: 16 0 0 0 0 0 0 0 0 0
FullNghs:  18895.5 ave 20841 max 16568 min
Histogram: 1 1 1 2 3 1 1 3 1 2

Total # of neighbors = 302328
Ave neighs/atom = 302.328
Neighbor list builds = 1000
Dangerous builds not checked
Setting up Verlet run ...
  Unit style    : real
  Current step  : 21000
  Time step     : 1
Per MPI rank memory allocation (min/avg/max) = 4.577 | 4.579 | 4.579 Mbytes
Step Temp E_pair E_mol TotEng Press Volume Lx Ly Lz S/CPU 
   21000    290.33436   -10493.269            0    -9628.703   -888.72628    781.12613    9.2095919    9.2095919    9.2095919            0 
   21100    295.44038   -10515.561            0   -9635.7896    5655.5522    782.79532    9.2161473    9.2161473    9.2161473    123.66528 
   21200    301.05869   -10539.413            0   -9642.9113   -3749.5474    784.47186    9.2227221    9.2227221    9.2227221    96.675091 
   21300    285.41104   -10497.767            0   -9647.8615   -10794.993    785.92382    9.2284086    9.2284086    9.2284086    107.83369 
   21400    285.91767   -10501.704            0   -9650.2902   -5849.3308    786.87791    9.2321415    9.2321415    9.2321415    84.621427 
   21500    291.23415   -10519.388            0   -9652.1425   -2587.0945    787.40208     9.234191     9.234191     9.234191    99.458139 
   21600    289.36211   -10512.942            0   -9651.2716   -12801.989    787.67062    9.2352406    9.2352406    9.2352406    88.402105 
   21700    282.43712   -10488.996            0   -9647.9461   -4156.5511    787.13179    9.2331343    9.2331343    9.2331343     59.60984 
   21800    292.06642   -10513.902            0   -9644.1776   -7950.8709    785.56608    9.2270082    9.2270082    9.2270082    68.391329 
   21900    285.29362   -10485.415            0   -9635.8596   -13626.943     783.2242    9.2178301    9.2178301    9.2178301    83.187343 
   22000    295.18244   -10502.262            0   -9623.2595      5097.71    780.64416    9.2076974    9.2076974    9.2076974    101.03941 
Loop time of 11.4203 on 16 procs for 1000 steps with 1000 atoms

Performance: 7.565 ns/day, 3.172 hours/ns, 87.563 timesteps/s
94.9% CPU use with 16 MPI tasks x no OpenMP threads

MPI task timing breakdown:
Section |  min time  |  avg time  |  max time  |%varavg| %total
---------------------------------------------------------------
Pair    | 1.649      | 1.7221     | 1.7761     |   2.3 | 15.08
Neigh   | 0.59062    | 0.60438    | 0.6304     |   1.3 |  5.29
Comm    | 0.39098    | 0.44719    | 0.53137    |   5.6 |  3.92
Output  | 5.9417     | 6.1117     | 8.6192     |  26.2 | 53.52
Modify  | 0.020028   | 2.5281     | 2.6984     |  40.7 | 22.14
Other   |            | 0.006792   |            |       |  0.06

Nlocal:    62.5 ave 67 max 57 min
Histogram: 1 2 0 1 2 1 2 2 2 3
Nghost:    1859.12 ave 1882 max 1839 min
Histogram: 2 2 1 1 5 1 0 1 0 3
Neighs:    0 ave 0 max 0 min
Histogram: 16 0 0 0 0 0 0 0 0 0
FullNghs:  18921.8 ave 20249 max 17222 min
Histogram: 3 0 1 0 2 1 3 1 3 2

Total # of neighbors = 302748
Ave neighs/atom = 302.748
Neighbor list builds = 1000
Dangerous builds not checked
Setting up Verlet run ...
  Unit style    : real
  Current step  : 22000
  Time step     : 1
Per MPI rank memory allocation (min/avg/max) = 4.577 | 4.579 | 4.579 Mbytes
Step Temp E_pair E_mol TotEng Press Volume Lx Ly Lz S/CPU 
   22000    295.18244   -10502.262            0   -9623.2595      5097.71    780.64416    9.2076974    9.2076974    9.2076974            0 
   22100    307.84904   -10521.372            0   -9604.6506    10848.692    778.25245    9.1982844    9.1982844    9.1982844     93.58986 
   22200    296.28268    -10464.58            0   -9582.3003    18689.525     776.5936    9.1917443    9.1917443    9.1917443    122.68014 
   22300    300.02335   -10459.298            0   -9565.8802    28296.921    776.03021     9.189521     9.189521     9.189521    61.602782 
   22400    313.42034   -10492.085            0   -9558.7728    5276.4854    776.71714    9.1922317    9.1922317    9.1922317     82.98285 
   22500    308.93622   -10475.508            0   -9555.5485    18847.193    778.25801    9.1983063    9.1983063    9.1983063    109.90169 
   22600    311.32835   -10483.837            0   -9556.7548    21316.898    780.90903    9.2087387    9.2087387    9.2087387    104.85419 
   22700    317.40749   -10505.861            0   -9560.6755   -12337.995    784.43657    9.2225838    9.2225838    9.2225838    56.690243 
   22800    301.77346   -10462.931            0   -9564.3013   -6212.8414    787.62464    9.2350609    9.2350609    9.2350609    93.885545 
   22900    305.42318   -10479.382            0   -9569.8843   -16378.196    790.04534    9.2445123    9.2445123    9.2445123    91.042437 
   23000    301.75984    -10474.13            0    -9575.541   -14674.189    791.30389    9.2494186    9.2494186    9.2494186    108.95064 
Loop time of 11.421 on 16 procs for 1000 steps with 1000 atoms

Performance: 7.565 ns/day, 3.172 hours/ns, 87.558 timesteps/s
95.0% CPU use with 16 MPI tasks x no OpenMP threads

MPI task timing breakdown:
Section |  min time  |  avg time  |  max time  |%varavg| %total
---------------------------------------------------------------
Pair    | 1.6794     | 1.741      | 1.7952     |   2.8 | 15.24
Neigh   | 0.59106    | 0.60525    | 0.62222    |   1.2 |  5.30
Comm    | 0.38116    | 0.45278    | 0.52847    |   6.6 |  3.96
Output  | 5.4754     | 5.673      | 8.5944     |  31.7 | 49.67
Modify  | 0.020105   | 2.9421     | 3.1401     |  44.0 | 25.76
Other   |            | 0.006846   |            |       |  0.06

Nlocal:    62.5 ave 67 max 57 min
Histogram: 2 1 0 0 1 4 3 0 2 3
Nghost:    1840.44 ave 1847 max 1829 min
Histogram: 1 0 0 4 0 1 2 3 3 2
Neighs:    0 ave 0 max 0 min
Histogram: 16 0 0 0 0 0 0 0 0 0
FullNghs:  18651.5 ave 20025 max 17018 min
Histogram: 3 0 0 1 2 5 0 0 2 3

Total # of neighbors = 298424
Ave neighs/atom = 298.424
Neighbor list builds = 1000
Dangerous builds not checked
Setting up Verlet run ...
  Unit style    : real
  Current step  : 23000
  Time step     : 1
Per MPI rank memory allocation (min/avg/max) = 4.577 | 4.579 | 4.579 Mbytes
Step Temp E_pair E_mol TotEng Press Volume Lx Ly Lz S/CPU 
   23000    301.75984    -10474.13            0    -9575.541   -14674.189    791.30389    9.2494186    9.2494186    9.2494186            0 
   23100    296.58431   -10465.401            0    -9582.224   -6820.8468    791.45983    9.2500261    9.2500261    9.2500261    73.877836 
   23200    306.40623   -10502.438            0   -9590.0123   -9130.1622    790.93985        9.248        9.248        9.248    74.211064 
   23300    297.77247   -10482.387            0   -9595.6714   -9841.2712    789.71052    9.2432062    9.2432062    9.2432062    96.268825 
   23400    294.50572   -10478.788            0   -9601.8003   -4549.4721    788.19366    9.2372843    9.2372843    9.2372843    107.72346 
   23500    298.46528   -10496.148            0   -9607.3689   -7489.5498    786.59517    9.2310356    9.2310356    9.2310356    78.745141 
   23600    296.29564    -10494.92            0    -9612.602    5318.8394     785.1006    9.2251854    9.2251854    9.2251854    93.730894 
   23700    284.03641   -10461.618            0   -9615.8057    4945.0992    783.86458    9.2203417    9.2203417    9.2203417    114.70396 
   23800     295.3031   -10499.347            0   -9619.9844    2166.8007    782.64233    9.2155468    9.2155468    9.2155468    110.80841 
   23900      290.772   -10488.589            0   -9622.7195    6164.5086    781.79264    9.2122106    9.2122106    9.2122106    87.285881 
   24000    298.80642   -10514.813            0   -9625.0186    452.73638    781.28983    9.2102353    9.2102353    9.2102353    74.489742 
Loop time of 11.2674 on 16 procs for 1000 steps with 1000 atoms

Performance: 7.668 ns/day, 3.130 hours/ns, 88.752 timesteps/s
95.0% CPU use with 16 MPI tasks x no OpenMP threads

MPI task timing breakdown:
Section |  min time  |  avg time  |  max time  |%varavg| %total
---------------------------------------------------------------
Pair    | 1.6577     | 1.7258     | 1.821      |   2.9 | 15.32
Neigh   | 0.59029    | 0.60583    | 0.63366    |   1.5 |  5.38
Comm    | 0.43267    | 0.55462    | 0.63754    |   6.4 |  4.92
Output  | 5.2876     | 5.482      | 8.3532     |  31.7 | 48.65
Modify  | 0.019953   | 2.8924     | 3.087      |  43.6 | 25.67
Other   |            | 0.006801   |            |       |  0.06

Nlocal:    62.5 ave 67 max 59 min
Histogram: 1 4 1 2 0 1 5 0 1 1
Nghost:    1848.75 ave 1863 max 1840 min
Histogram: 4 1 2 3 1 1 1 0 2 1
Neighs:    0 ave 0 max 0 min
Histogram: 16 0 0 0 0 0 0 0 0 0
FullNghs:  18895.8 ave 20370 max 17586 min
Histogram: 1 1 3 3 1 1 4 0 1 1

Total # of neighbors = 302332
Ave neighs/atom = 302.332
Neighbor list builds = 1000
Dangerous builds not checked
Setting up Verlet run ...
  Unit style    : real
  Current step  : 24000
  Time step     : 1
Per MPI rank memory allocation (min/avg/max) = 4.577 | 4.579 | 4.579 Mbytes
Step Temp E_pair E_mol TotEng Press Volume Lx Ly Lz S/CPU 
   24000    298.80642   -10514.813            0   -9625.0186    452.73638    781.28983    9.2102353    9.2102353    9.2102353            0 
   24100    292.78276   -10497.513            0   -9625.6561    11842.771    780.79281    9.2082818    9.2082818    9.2082818    82.080592 
   24200     295.1767   -10504.184            0   -9625.1982    8693.1686    780.30922    9.2063804    9.2063804    9.2063804     111.0534 
   24300    310.95675   -10551.931            0   -9625.9547    4460.5299    780.28707    9.2062932    9.2062932    9.2062932     95.18794 
   24400    305.91992   -10533.773            0   -9622.7962    10553.568    780.79902    9.2083062    9.2083062    9.2083062    88.714297 
   24500    288.66111   -10478.452            0   -9618.8689    3159.0842    781.77693    9.2121489    9.2121489    9.2121489    75.956709 
   24600    302.39522   -10516.985            0   -9616.5041    3529.4206    783.02836    9.2170618    9.2170618    9.2170618     103.6432 
   24700    303.89691   -10516.245            0   -9611.2923   -4039.0079    784.46726    9.2227041    9.2227041    9.2227041     107.2618 
   24800    299.58063   -10496.072            0   -9603.9719    -11853.83    785.52175    9.2268347    9.2268347    9.2268347    107.10586 
   24900    304.19636   -10504.506            0   -9598.6614   -14417.772    786.21452    9.2295463    9.2295463    9.2295463    78.907215 
   25000    310.70139   -10515.194            0   -9589.9784    329.08963    787.02305    9.2327091    9.2327091    9.2327091    90.167813 
Loop time of 10.8203 on 16 procs for 1000 steps with 1000 atoms

Performance: 7.985 ns/day, 3.006 hours/ns, 92.419 timesteps/s
95.0% CPU use with 16 MPI tasks x no OpenMP threads

MPI task timing breakdown:
Section |  min time  |  avg time  |  max time  |%varavg| %total
---------------------------------------------------------------
Pair    | 1.6638     | 1.7325     | 1.814      |   2.8 | 16.01
Neigh   | 0.58646    | 0.60455    | 0.63815    |   1.5 |  5.59
Comm    | 0.34445    | 0.45907    | 0.54001    |   7.1 |  4.24
Output  | 5.3492     | 5.5173     | 7.9967     |  27.3 | 50.99
Modify  | 0.019843   | 2.5        | 2.6682     |  40.5 | 23.10
Other   |            | 0.006808   |            |       |  0.06

Nlocal:    62.5 ave 68 max 59 min
Histogram: 3 0 3 1 4 2 2 0 0 1
Nghost:    1852.88 ave 1867 max 1842 min
Histogram: 2 2 3 1 2 0 1 3 1 1
Neighs:    0 ave 0 max 0 min
Histogram: 16 0 0 0 0 0 0 0 0 0
FullNghs:  18771.4 ave 20475 max 17710 min
Histogram: 3 2 1 1 4 2 2 0 0 1

Total # of neighbors = 300342
Ave neighs/atom = 300.342
Neighbor list builds = 1000
Dangerous builds not checked
Setting up Verlet run ...
  Unit style    : real
  Current step  : 25000
  Time step     : 1
Per MPI rank memory allocation (min/avg/max) = 4.577 | 4.579 | 4.579 Mbytes
Step Temp E_pair E_mol TotEng Press Volume Lx Ly Lz S/CPU 
   25000    310.70139   -10515.194            0   -9589.9784    329.08963    787.02305    9.2327091    9.2327091    9.2327091            0 
   25100    306.09547   -10493.138            0   -9581.6376   -3061.6754    788.07709     9.236829     9.236829     9.236829     90.23942 
   25200    300.91132   -10468.593            0     -9572.53   -17401.572    788.74972    9.2394561    9.2394561    9.2394561    98.534089 
   25300    307.72545   -10481.307            0   -9564.9527    2089.3556    788.75928    9.2394934    9.2394934    9.2394934    100.82723 
   25400    307.86769   -10474.947            0   -9558.1695    4231.7931    788.83501    9.2397891    9.2397891    9.2397891    65.235582 
   25500    309.25662   -10473.871            0   -9552.9581   -3189.0798    789.15065    9.2410213    9.2410213    9.2410213    69.252325 
   25600    299.31783    -10440.39            0   -9549.0727    7130.1377    789.30164    9.2416107    9.2416107    9.2416107    101.06001 
   25700    304.54974   -10454.006            0    -9547.109   -5997.9992    789.52075    9.2424657    9.2424657    9.2424657    101.21904 
   25800    316.44498   -10489.318            0   -9546.9984    2455.8065    789.86526    9.2438099    9.2438099    9.2438099    66.419319 
   25900    299.66109   -10439.597            0   -9547.2571     -828.033    790.29857    9.2454999    9.2454999    9.2454999    107.88591 
   26000    297.63437   -10436.642            0   -9550.3373   -13847.436    790.52319    9.2463758    9.2463758    9.2463758    99.655371 
Loop time of 11.5052 on 16 procs for 1000 steps with 1000 atoms

Performance: 7.510 ns/day, 3.196 hours/ns, 86.917 timesteps/s
94.9% CPU use with 16 MPI tasks x no OpenMP threads

MPI task timing breakdown:
Section |  min time  |  avg time  |  max time  |%varavg| %total
---------------------------------------------------------------
Pair    | 1.65       | 1.7071     | 1.7716     |   2.4 | 14.84
Neigh   | 0.59076    | 0.60313    | 0.63458    |   1.3 |  5.24
Comm    | 0.38027    | 0.47601    | 0.54468    |   5.9 |  4.14
Output  | 5.5797     | 5.7771     | 8.6913     |  31.3 | 50.21
Modify  | 0.020234   | 2.935      | 3.1326     |  43.9 | 25.51
Other   |            | 0.006828   |            |       |  0.06

Nlocal:    62.5 ave 68 max 55 min
Histogram: 1 2 0 2 1 1 3 3 0 3
Nghost:    1840.62 ave 1847 max 1828 min
Histogram: 1 1 0 1 0 2 3 2 4 2
Neighs:    0 ave 0 max 0 min
Histogram: 16 0 0 0 0 0 0 0 0 0
FullNghs:  18648.5 ave 20485 max 16440 min
Histogram: 1 2 1 1 1 2 3 1 1 3

Total # of neighbors = 298376
Ave neighs/atom = 298.376
Neighbor list builds = 1000
Dangerous builds not checked
Setting up Verlet run ...
  Unit style    : real
  Current step  : 26000
  Time step     : 1
Per MPI rank memory allocation (min/avg/max) = 4.577 | 4.579 | 4.579 Mbytes
Step Temp E_pair E_mol TotEng Press Volume Lx Ly Lz S/CPU 
   26000    297.63437   -10436.642            0   -9550.3373   -13847.436    790.52319    9.2463758    9.2463758    9.2463758            0 
   26100    297.31608   -10442.069            0   -9556.7127      -3261.7    790.24652    9.2452969    9.2452969    9.2452969    99.771633 
   26200    290.54871   -10427.687            0   -9562.4828   -205.18732     789.8337    9.2436868    9.2436868    9.2436868    71.097633 
   26300    313.76254   -10507.217            0    -9572.886   -6807.4942    789.39087    9.2419589    9.2419589    9.2419589    88.767626 
   26400    298.79909   -10473.353            0   -9583.5801   -7771.1306    788.62725    9.2389778    9.2389778    9.2389778    103.72353 
   26500    304.47281   -10504.343            0   -9597.6749   -5792.5833    787.44794    9.2343702    9.2343702    9.2343702    106.27837 
   26600    296.44948   -10493.322            0   -9610.5461    2551.5773    786.08969    9.2290578    9.2290578    9.2290578     108.0443 
   26700    293.18886   -10495.644            0   -9622.5781    10496.854    784.38887    9.2223969    9.2223969    9.2223969    68.622392 
   26800    296.64903   -10515.133            0    -9631.763   -4548.9298    782.88045    9.2164814    9.2164814    9.2164814     88.46463 
   26900    302.07632   -10538.729            0   -9639.1974   -1114.4548     781.1974    9.2098721    9.2098721    9.2098721    94.596353 
   27000    299.25924   -10534.219            0   -9643.0761    17966.522    779.46167    9.2030459    9.2030459    9.2030459    101.53407 
Loop time of 10.9956 on 16 procs for 1000 steps with 1000 atoms

Performance: 7.858 ns/day, 3.054 hours/ns, 90.946 timesteps/s
95.0% CPU use with 16 MPI tasks x no OpenMP threads

MPI task timing breakdown:
Section |  min time  |  avg time  |  max time  |%varavg| %total
---------------------------------------------------------------
Pair    | 1.6288     | 1.7177     | 1.8027     |   3.8 | 15.62
Neigh   | 0.58951    | 0.60469    | 0.6401     |   1.5 |  5.50
Comm    | 0.38235    | 0.47982    | 0.58066    |   8.6 |  4.36
Output  | 5.019      | 5.2188     | 8.1657     |  33.3 | 47.46
Modify  | 0.0203     | 2.9678     | 3.168      |  44.2 | 26.99
Other   |            | 0.006837   |            |       |  0.06

Nlocal:    62.5 ave 66 max 58 min
Histogram: 1 0 1 2 0 6 1 2 1 2
Nghost:    1867.06 ave 1879 max 1860 min
Histogram: 2 1 4 3 3 0 1 1 0 1
Neighs:    0 ave 0 max 0 min
Histogram: 16 0 0 0 0 0 0 0 0 0
FullNghs:  18937.9 ave 20117 max 17546 min
Histogram: 1 0 1 2 3 4 0 1 2 2

Total # of neighbors = 303006
Ave neighs/atom = 303.006
Neighbor list builds = 1000
Dangerous builds not checked
Setting up Verlet run ...
  Unit style    : real
  Current step  : 27000
  Time step     : 1
Per MPI rank memory allocation (min/avg/max) = 4.577 | 4.579 | 4.579 Mbytes
Step Temp E_pair E_mol TotEng Press Volume Lx Ly Lz S/CPU 
   27000    299.25924   -10534.219            0   -9643.0761    17966.522    779.46167    9.2030459    9.2030459    9.2030459            0 
   27100    303.22501   -10547.851            0   -9644.8984    7175.4875    778.13535     9.197823     9.197823     9.197823    71.252132 
   27200    296.00227   -10527.265            0   -9645.8209    9445.6831    777.00437    9.1933647    9.1933647    9.1933647    86.069004 
   27300    305.65114    -10556.68            0   -9646.5027    9885.1596    776.27893    9.1905027    9.1905027    9.1905027    95.162751 
   27400    305.05774   -10556.322            0   -9647.9123    20365.287     776.1236    9.1898897    9.1898897    9.1898897    109.50359 
   27500    300.82241   -10541.961            0   -9646.1636     15241.07    777.03266    9.1934762    9.1934762    9.1934762    99.778928 
   27600    301.61068   -10543.617            0   -9645.4722    14333.498     778.6864    9.1999937    9.1999937    9.1999937    77.127908 
   27700    305.71361   -10554.839            0   -9644.4758    1135.8633    781.20772    9.2099126    9.2099126    9.2099126    107.37459 
   27800    300.61376   -10538.654            0   -9643.4773    1586.5183    783.84133    9.2202505    9.2202505    9.2202505    104.12113 
   27900    296.22636   -10521.752            0   -9639.6404   -7590.8459    786.04775    9.2288937    9.2288937    9.2288937    103.03189 
   28000    298.34257    -10523.76            0    -9635.347   -4491.3422    787.75645    9.2355761    9.2355761    9.2355761    101.89686 
Loop time of 10.6718 on 16 procs for 1000 steps with 1000 atoms

[...]
  268700    295.68873    -11380.94            0   -10500.429    3522.6113    750.50175    9.0876286    9.0876286    9.0876286    74.877076 
  268800    301.23442   -11402.292            0   -10505.268   -12374.138    750.73587    9.0885735    9.0885735    9.0885735    58.100343 
  268900    308.04434   -11426.754            0    -10509.45    11676.832    750.83624    9.0889785    9.0889785    9.0889785    55.680293 
  269000     301.5555   -11409.138            0   -10511.157   -7370.6304    751.25717    9.0906766    9.0906766    9.0906766    57.203633 
  269100    302.44273   -11412.243            0    -10511.62     599.0086    751.68178     9.092389     9.092389     9.092389     54.84058 
  269200    301.78587   -11411.637            0    -10512.97      16934.7    752.11666    9.0941421    9.0941421    9.0941421    69.444926 
  269300    296.77808   -11397.617            0   -10513.862   -5737.4721    752.83232    9.0970256    9.0970256    9.0970256    54.267295 
  269400    300.62241   -11409.309            0   -10514.107    -8631.129    753.39875    9.0993066    9.0993066    9.0993066     69.88252 
  269500    298.12681   -11401.093            0   -10513.323   -12890.766    753.46676    9.0995804    9.0995804    9.0995804    71.342313 
  269600    308.04968    -11431.74            0    -10514.42   -7754.4086    752.97299    9.0975922    9.0975922    9.0975922     54.11054 
  269700     299.7381   -11406.271            0   -10513.702   -3675.4111    752.15382    9.0942919    9.0942919    9.0942919    68.693232 
  269800     294.7572   -11389.856            0    -10512.12    1307.2272     751.2572    9.0906768    9.0906768    9.0906768    56.297288 
  269900    296.60335   -11396.286            0   -10513.052   -6159.8911    750.56044    9.0878655    9.0878655    9.0878655    62.193568 
  270000    310.05127   -11437.865            0   -10514.585    9399.4646    749.92122    9.0852848    9.0852848    9.0852848    67.184515 
  270100    303.75852   -11418.265            0   -10513.724    13860.632    749.62331    9.0840816    9.0840816    9.0840816    57.653701 
  270200    296.69041   -11398.956            0   -10515.462    13087.447    750.12844    9.0861216    9.0861216    9.0861216    70.748517 
  270300    289.98196   -11379.272            0   -10515.755   -4971.6989    751.41517    9.0913139    9.0913139    9.0913139    72.691985 
  270400     287.2146   -11370.773            0   -10515.497   -6700.3939    752.55415    9.0959051    9.0959051    9.0959051    53.878411 
  270500    296.96082   -11400.462            0   -10516.163   -11937.607    753.10153    9.0981099    9.0981099    9.0981099    66.482009 
  270600    300.20992   -11411.663            0   -10517.689   -13689.734     753.0252    9.0978025    9.0978025    9.0978025    62.056992 
  270700    306.55925   -11433.564            0   -10520.683   -2849.5488    752.50557    9.0957093    9.0957093    9.0957093    56.611047 
  270800    303.05883   -11425.292            0   -10522.835    1973.9811    751.83021    9.0929874    9.0929874    9.0929874    65.646688 
  270900    288.55402   -11386.178            0   -10526.913    6032.7728    750.87057     9.089117     9.089117     9.089117    54.619653 
  271000    290.36378   -11397.747            0   -10533.093    10611.571    749.68761    9.0843414    9.0843414    9.0843414    73.093961 
  271100    286.54169   -11391.615            0   -10538.343    8114.8098    748.90936    9.0811968    9.0811968    9.0811968    57.305613 
  271200    294.09932   -11420.204            0   -10544.426    5450.2503    748.80133    9.0807601    9.0807601    9.0807601    50.757021 
  271300    291.91707   -11420.111            0   -10550.831    13384.896    749.36559    9.0830405    9.0830405    9.0830405    63.253684 
  271400     289.5712   -11419.312            0   -10557.019    630.52702    750.40929    9.0872554    9.0872554    9.0872554    54.238657 
  271500    291.96266   -11432.273            0   -10562.858    9166.5501    751.62282    9.0921513    9.0921513    9.0921513    71.210257 
  271600    291.56367   -11435.912            0   -10567.685   -3560.0311    752.80707    9.0969239    9.0969239    9.0969239    69.209539 
  271700    291.09867   -11436.983            0   -10570.141   -8322.5066    753.65273     9.100329     9.100329     9.100329    50.019183 
  271800    292.32739   -11442.882            0   -10572.381   -16173.432    753.80804     9.100954     9.100954     9.100954    77.632146 
  271900    295.10197   -11451.145            0   -10572.382   -23811.243    753.30751    9.0989393    9.0989393    9.0989393    38.865177 
  272000    292.49124   -11442.939            0    -10571.95   -4018.1156    752.04123    9.0938381    9.0938381    9.0938381    65.892722 
  272100    299.13968   -11459.687            0     -10568.9    1946.3855    750.65177    9.0882341    9.0882341    9.0882341      69.0204 
  272200    297.21185   -11447.491            0   -10562.445    12140.511    749.51287    9.0836355    9.0836355    9.0836355    53.514146 
  272300     303.1703   -11458.247            0   -10555.457    548.15482     748.6467     9.080135     9.080135     9.080135    70.211654 
  272400    303.97578   -11449.444            0   -10544.256    10682.681    748.28533    9.0786738    9.0786738    9.0786738     64.75912 
  272500    294.71375   -11409.408            0   -10531.801     14936.01    749.05065    9.0817678    9.0817678    9.0817678    59.608467 
  272600    294.95563   -11398.126            0   -10519.798    10799.752    750.85057    9.0890363    9.0890363    9.0890363    60.102864 
  272700    307.66449   -11426.345            0   -10510.173    3850.4469    753.43898    9.0994685    9.0994685    9.0994685    65.401662 
  272800    302.70426   -11402.988            0   -10501.587   -6312.2515     756.0621    9.1100163    9.1100163    9.1100163    59.805322 
  272900    304.39556    -11401.64            0   -10495.202   -8258.7661    758.47645    9.1197031    9.1197031    9.1197031    58.002229 
  273000    294.28774   -11366.039            0     -10489.7   -28084.774     760.0808    9.1261287    9.1261287    9.1261287    57.317559 
  273100    302.58793   -11387.037            0   -10485.981   -10694.664    760.53641    9.1279518    9.1279518    9.1279518     73.37333 
  273200    293.41547   -11356.461            0    -10482.72   -33449.402    759.84907    9.1252011    9.1252011    9.1252011     61.61007 
  273300    304.72919   -11390.331            0   -10482.899   -2068.9823    757.20574    9.1146074    9.1146074    9.1146074    58.946071 
  273400    297.57377   -11367.051            0   -10480.927    5913.6053    753.45364    9.0995276    9.0995276    9.0995276    77.467149 
  273500    301.37203   -11377.469            0   -10480.034    20285.724    749.76829    9.0846672    9.0846672    9.0846672    54.472696 
  273600    302.64422   -11382.017            0   -10480.795     16034.67    747.16898    9.0741567    9.0741567    9.0741567    75.743579 
  273700    301.86097   -11380.728            0   -10481.837    26442.028    745.77376     9.068505     9.068505     9.068505    73.408947 
  273800     304.5542   -11391.567            0   -10484.656    29080.427    745.62353    9.0678961    9.0678961    9.0678961    57.094226 
  273900    291.99875   -11358.292            0    -10488.77    22423.797    747.01109    9.0735175    9.0735175    9.0735175    75.748108 
  274000    300.93708   -11389.991            0   -10493.852    6738.0159    749.81852    9.0848701    9.0848701    9.0848701     69.92274 
  274100     302.5799   -11401.902            0    -10500.87   -6908.8094    753.42902    9.0994284    9.0994284    9.0994284    64.215475 
  274200    302.46245   -11408.611            0   -10507.929   -20815.405    757.07056    9.1140649    9.1140649    9.1140649    76.302789 
  274300    297.04481   -11399.097            0   -10514.548   -24692.136    759.53347    9.1239376    9.1239376    9.1239376    51.611006 
  274400    289.52283   -11386.208            0   -10524.058   -29110.297    760.02843     9.125919     9.125919     9.125919    61.759984 
  274500    289.82879   -11398.272            0   -10535.212   -18522.497    758.67361    9.1204932    9.1204932    9.1204932     68.54129 
  274600    297.10232   -11434.038            0   -10549.318    -23273.85    756.08252    9.1100983    9.1100983    9.1100983    57.956696 
  274700    298.08404   -11453.737            0   -10566.094   -9787.2016    752.48952    9.0956447    9.0956447    9.0956447    72.214462 
  274800     301.6655    -11480.27            0   -10581.962    10834.407    748.48242    9.0794708    9.0794708    9.0794708    65.888468 
  274900    297.07468   -11478.456            0   -10593.819    15319.725    745.07756    9.0656823    9.0656823    9.0656823    55.237321 
  275000    286.46515   -11454.751            0   -10601.707    44279.749    743.11343    9.0577091    9.0577091    9.0577091    66.372967 
  275100    286.23396   -11458.884            0   -10606.528    21626.136    743.21931    9.0581393    9.0581393    9.0581393     64.32148 
  275200    303.02849   -11512.017            0    -10609.65    13253.104    745.08321    9.0657052    9.0657052    9.0657052    68.374818 
  275300    289.82074   -11469.951            0   -10606.914    9806.4293    748.06778    9.0777938    9.0777938    9.0777938    73.526591 
  275400    288.60533   -11463.924            0   -10604.506   -1812.6063    751.76059    9.0927068    9.0927068    9.0927068    54.763565 
  275500    288.15372   -11457.307            0   -10599.234    -32328.99    755.68404    9.1084976    9.1084976    9.1084976    71.843141 
  275600    288.00464   -11451.528            0     -10593.9   -25111.581    758.45274    9.1196081    9.1196081    9.1196081    71.531768 
  275700    288.25724   -11444.477            0   -10586.097     -34305.7    759.71885    9.1246798    9.1246798    9.1246798    52.059845 
  275800    296.06422   -11459.957            0   -10578.328    -10045.57    759.16056    9.1224441    9.1224441    9.1224441    84.202607 
  275900    290.50766   -11435.595            0   -10570.513   -32823.754    757.14043    9.1143453    9.1143453    9.1143453    73.318877 
  276000    297.76179   -11448.683            0   -10561.999    7661.0765    753.96009    9.1015659    9.1015659    9.1015659    74.387325 
  276100    287.05541   -11406.198            0   -10551.396     6010.803    750.53263    9.0877532    9.0877532    9.0877532    102.35532 
  276200    307.44678   -11460.257            0   -10544.733     26410.43    747.35639    9.0749154    9.0749154    9.0749154    102.98016 
  276300     297.0674    -11421.26            0   -10536.644     26909.11     745.4372    9.0671407    9.0671407    9.0671407    84.353158 
  276400    291.01639   -11395.109            0   -10528.512    26139.053    745.32653     9.066692     9.066692     9.066692      67.8207 
  276500    301.34246   -11420.564            0   -10523.218    26977.952    746.67665    9.0721632    9.0721632    9.0721632    90.356689 
  276600    300.26254   -11413.936            0   -10519.805   -2481.2604    749.23129    9.0824978    9.0824978    9.0824978    99.594685 
  276700    297.16435     -11399.6            0   -10514.695   -2377.3014    752.44275    9.0954562    9.0954562    9.0954562    66.338288 
  276800    302.04859   -11411.399            0    -10511.95   -16017.338    755.80768    9.1089944    9.1089944    9.1089944    88.717907 
  276900    301.18074   -11404.231            0   -10507.366   -7282.4769     758.5728    9.1200893    9.1200893    9.1200893    81.789136 
  277000    291.99947   -11372.482            0   -10502.958   -25434.876    760.32335    9.1270993    9.1270993    9.1270993     59.90637 
  277100    305.08644   -11409.099            0   -10500.603   -37344.944    760.47917    9.1277228    9.1277228    9.1277228    92.993102 
  277200    311.18971   -11426.875            0   -10500.205   -22366.314    759.03969      9.12196      9.12196      9.12196    93.511586 
  277300    296.26757   -11380.856            0   -10498.622   -15524.128    756.12338    9.1102625    9.1102625    9.1102625    78.732314 
  277400    311.21752   -11426.109            0   -10499.356    -3283.809    752.39115    9.0952483    9.0952483    9.0952483    79.030768 
  277500     313.8156   -11436.055            0   -10501.566    12081.088    748.29903    9.0787292    9.0787292    9.0787292    76.888904 
  277600    300.64833   -11396.932            0   -10501.653    29467.293    744.95061    9.0651674    9.0651674    9.0651674     107.1577 
  277700    313.25489   -11442.088            0   -10509.269    36020.296    743.38202    9.0588003    9.0588003    9.0588003    75.644874 
  277800    312.12836   -11448.942            0   -10519.477    24241.304    744.02068    9.0613937    9.0613937    9.0613937    71.037504 
  277900    309.67281   -11457.335            0   -10535.182    4072.3326    746.45395    9.0712612    9.0712612    9.0712612      93.2118 
  278000     292.6954   -11421.525            0   -10549.928    1225.6629    749.65452    9.0842077    9.0842077    9.0842077    61.338435 
  278100    292.55986    -11435.73            0   -10564.537   -16533.909    753.13141    9.0982302    9.0982302    9.0982302    78.165011 
  278200    300.14702   -11469.127            0    -10575.34   -24926.665    756.06044    9.1100097    9.1100097    9.1100097    71.561125 
  278300    289.67545   -11440.954            0    -10578.35   -19769.228    757.74872    9.1167855    9.1167855    9.1167855    57.871177 
  278400    281.86299   -11419.348            0   -10580.008   -9277.8571    758.02138    9.1178789    9.1178789    9.1178789    67.346077 
  278500    283.70067   -11424.687            0   -10579.875   -22654.118    756.84123    9.1131446    9.1131446    9.1131446    74.869672 
  278600    292.97926   -11450.275            0   -10577.833   -13547.082     754.2602    9.1027734    9.1027734    9.1027734    52.862655 
  278700    292.76153   -11443.648            0   -10571.855    5718.4617    750.81656    9.0888991    9.0888991    9.0888991    67.864368 
  278800    298.40791   -11451.906            0   -10563.298     20196.46    747.98487    9.0774585    9.0774585    9.0774585    50.999032 
  278900    292.83009   -11426.136            0   -10554.138    26263.915    746.36108     9.070885     9.070885     9.070885    59.379782 
  279000     292.8785    -11416.61            0   -10544.468    22095.179    746.01945    9.0695008    9.0695008    9.0695008    61.508352 
  279100    301.02856   -11433.837            0   -10537.425    15897.173    747.31386    9.0747432    9.0747432    9.0747432    55.452902 
  279200    292.86818   -11401.748            0   -10529.636    5618.3589    749.84902    9.0849932    9.0849932    9.0849932    65.906681 
  279300    308.91469   -11444.442            0   -10524.546    -1086.573    753.08877    9.0980585    9.0980585    9.0980585    59.863774 
  279400     286.9568   -11373.055            0   -10518.546   -5312.0662    756.33422    9.1111092    9.1111092    9.1111092    62.254932 
  279500     298.5604   -11403.048            0   -10513.986   -12520.115    759.01474      9.12186      9.12186      9.12186    67.299434 
  279600    302.99506    -11413.25            0   -10510.983   -23093.063    760.51591    9.1278697    9.1278697    9.1278697    56.460512 
  279700     303.4271    -11410.08            0   -10506.526   -23366.173    760.53812    9.1279586    9.1279586    9.1279586    72.549862 
  279800    293.13384    -11376.99            0   -10504.088   -29422.556    758.74442     9.120777     9.120777     9.120777    58.153244 
  279900    306.33941    -11414.04            0   -10501.814   -4434.7313    755.35384    9.1071708    9.1071708    9.1071708    62.645781 
  280000     302.2636   -11398.665            0   -10498.576    13731.131    751.38241    9.0911818    9.0911818    9.0911818    69.210446 
  280100    314.82282   -11434.219            0    -10496.73     10030.93    747.58767    9.0758514    9.0758514    9.0758514    63.418388 
  280200     304.0976   -11400.154            0   -10494.604    32759.916    744.83819    9.0647113    9.0647113    9.0647113    61.165524 
  280300     310.0941   -11418.503            0   -10495.096    23162.768     744.0903    9.0616764    9.0616764    9.0616764     69.29576 
  280400    307.84721    -11413.57            0   -10496.854     23525.07     745.1542    9.0659931    9.0659931    9.0659931    62.009948 
  280500    300.18048   -11393.569            0   -10499.683    21989.252    747.78381    9.0766451    9.0766451    9.0766451    68.695131 
  280600    307.73256   -11419.378            0   -10503.003    4495.9248    751.54024    9.0918183    9.0918183    9.0918183    53.870827 
  280700    295.56538   -11385.071            0   -10504.927   -18667.685     755.7098    9.1086011    9.1086011    9.1086011     44.84595 
  280800    300.35358   -11399.464            0   -10505.063   -29764.214    759.39345    9.1233769    9.1233769    9.1233769    73.716207 
  280900    299.86257   -11398.175            0   -10505.236     -33457.2    761.37271    9.1312963    9.1312963    9.1312963    55.469201 
  281000    295.46226   -11387.615            0   -10507.779    -30172.02    761.23335    9.1307391    9.1307391    9.1307391    72.641522 
  281100    291.08939   -11377.523            0   -10510.708   -5548.2445    758.97319    9.1216936    9.1216936    9.1216936    61.677831 
  281200    298.50604   -11402.901            0   -10514.001   -13563.607    755.66229    9.1084102    9.1084102    9.1084102    56.325092 
  281300    306.13767   -11430.097            0   -10518.471   -1124.3591    751.77957    9.0927833    9.0927833    9.0927833    72.417775 
  281400     300.3701   -11416.693            0   -10522.242    22428.732    748.25397    9.0785469    9.0785469    9.0785469    57.652167 
  281500    303.52703    -11432.22            0   -10528.369    23908.822    746.14197    9.0699973    9.0699973    9.0699973    66.981759 
  281600    291.83659   -11404.483            0   -10535.444    23120.485    745.70139    9.0682117    9.0682117    9.0682117    53.903008 
  281700    304.44316   -11451.842            0   -10545.262    15852.529     747.0801    9.0737969    9.0737969    9.0737969    51.026519 
  281800     287.9479   -11410.233            0   -10552.774    12036.855    749.54604    9.0837695    9.0837695    9.0837695    77.300922 
  281900    298.54961   -11450.005            0   -10560.975    2210.4327    752.13542    9.0942177    9.0942177    9.0942177    52.658713 
  282000    291.58699   -11434.227            0   -10565.931   -4869.1688    754.33077    9.1030573    9.1030573    9.1030573    66.015024 
Loop time of 1491.37 on 16 procs for 100000 steps with 1000 atoms

Performance: 5.793 ns/day, 4.143 hours/ns, 67.052 timesteps/s
94.6% CPU use with 16 MPI tasks x no OpenMP threads

MPI task timing breakdown:
Section |  min time  |  avg time  |  max time  |%varavg| %total
---------------------------------------------------------------
Pair    | 145.71     | 166.56     | 184.06     | 100.2 | 11.17
Neigh   | 57.09      | 61.838     | 65.219     |  35.0 |  4.15
Comm    | 31.648     | 52.511     | 78.009     | 215.1 |  3.52
Output  | 810.11     | 835.25     | 1207.7     | 332.7 | 56.01
Modify  | 2.0351     | 374.51     | 399.69     | 497.0 | 25.11
Other   |            | 0.696      |            |       |  0.05

Nlocal:    62.5 ave 67 max 56 min
Histogram: 2 0 4 0 1 0 1 2 1 5
Nghost:    1896.44 ave 1917 max 1865 min
Histogram: 2 2 0 1 0 3 1 0 1 6
Neighs:    0 ave 0 max 0 min
Histogram: 16 0 0 0 0 0 0 0 0 0
FullNghs:  19536.4 ave 21614 max 17019 min
Histogram: 2 0 4 1 0 0 1 3 2 3

Total # of neighbors = 312582
Ave neighs/atom = 312.582
Neighbor list builds = 100000
Dangerous builds not checked
Total wall time: 1:05:52
