LAMMPS (16 Mar 2018)
Reading data file ...
  orthogonal box = (-4.72977 -4.72977 -4.72977) to (4.72977 4.72977 4.72977)
  2 by 2 by 4 MPI processor grid
  reading atoms ...
  1000 atoms
Reading potential file /home/fs01/ajm529/lammps-16Mar18/potentials/sw_potentials/AG/eps2.23.sw with DATE: 2008-01-29
Neighbor list info ...
  update every 1 steps, delay 0 steps, check no
  max neighbors/atom: 2000, page size: 100000
  master list distance cutoff = 3.836
  ghost atom cutoff = 3.836
  binsize = 1.918, bins = 5 5 5
  1 neighbor lists, perpetual/occasional/extra = 1 0 0
  (1) pair sw, perpetual
      attributes: full, newton on
      pair build: full/bin/atomonly
      stencil: full/bin/3d
      bin: standard
Setting up Verlet run ...
  Unit style    : real
  Current step  : 0
  Time step     : 1
Per MPI rank memory allocation (min/avg/max) = 3.516 | 3.519 | 3.521 Mbytes
Step Temp E_pair E_mol TotEng Press Volume Lx Ly Lz S/CPU 
       0          300   -10164.951            0   -9271.6019   -33925.852     846.4691    9.4595477    9.4595477    9.4595477            0 
     100    317.37359   -10221.548            0    -9276.464   -53033.278     844.4463    9.4520065    9.4520065    9.4520065    82.441036 
     200    322.67933   -10249.944            0   -9289.0605   -52517.431    838.16736    9.4285212    9.4285212    9.4285212    113.38378 
     300    330.29555   -10292.052            0   -9308.4883   -33621.511    828.64834    9.3926921    9.3926921    9.3926921    76.101385 
     400    313.73355   -10263.692            0    -9329.447   -24237.792    817.01304    9.3485229    9.3485229    9.3485229    66.070477 
     500     325.1692   -10318.312            0   -9350.0132    777.69736    805.28893    9.3035903    9.3035903    9.3035903    91.764203 
     600    316.53472   -10307.544            0    -9364.958    14768.802     795.2661    9.2648307    9.2648307    9.2648307    109.09122 
     700    318.85274   -10326.514            0   -9377.0247    11124.108    787.61107    9.2350079    9.2350079    9.2350079    76.012868 
     800    308.56156   -10306.646            0   -9387.8024     5977.227    782.43382    9.2147284    9.2147284    9.2147284    68.242586 
     900    326.61241   -10375.517            0   -9402.9205    20120.411    779.24095    9.2021771    9.2021771    9.2021771    83.542453 
    1000    316.97836    -10361.75            0   -9417.8424    26472.201    778.02458    9.1973865    9.1973865    9.1973865    111.66585 
Loop time of 11.8024 on 16 procs for 1000 steps with 1000 atoms

Performance: 7.321 ns/day, 3.278 hours/ns, 84.729 timesteps/s
94.8% CPU use with 16 MPI tasks x no OpenMP threads

MPI task timing breakdown:
Section |  min time  |  avg time  |  max time  |%varavg| %total
---------------------------------------------------------------
Pair    | 1.553      | 1.6348     | 1.7039     |   2.9 | 13.85
Neigh   | 0.57985    | 0.60185    | 0.6174     |   1.5 |  5.10
Comm    | 0.38758    | 0.46984    | 0.57329    |   6.6 |  3.98
Output  | 6.316      | 6.4911     | 9.0685     |  26.1 | 55.00
Modify  | 0.020169   | 2.5979     | 2.7731     |  41.3 | 22.01
Other   |            | 0.006814   |            |       |  0.06

Nlocal:    62.5 ave 68 max 57 min
Histogram: 2 0 2 1 2 4 2 1 0 2
Nghost:    1865.38 ave 1887 max 1835 min
Histogram: 1 0 1 1 3 3 2 1 2 2
Neighs:    0 ave 0 max 0 min
Histogram: 16 0 0 0 0 0 0 0 0 0
FullNghs:  18969 ave 20881 max 17033 min
Histogram: 1 1 2 1 4 1 3 1 0 2

Total # of neighbors = 303504
Ave neighs/atom = 303.504
Neighbor list builds = 1000
Dangerous builds not checked
Setting up Verlet run ...
  Unit style    : real
  Current step  : 1000
  Time step     : 1
Per MPI rank memory allocation (min/avg/max) = 3.522 | 4.209 | 4.58 Mbytes
Step Temp E_pair E_mol TotEng Press Volume Lx Ly Lz S/CPU 
    1000    316.97836    -10361.75            0   -9417.8424    26472.201    778.02458    9.1973865    9.1973865    9.1973865            0 
    1100    315.72109   -10376.039            0   -9435.8759    12091.536    778.50519      9.19928      9.19928      9.19928    82.149998 
    1200    309.42227   -10372.468            0   -9451.0614   -2659.3969    779.65687    9.2038141    9.2038141    9.2038141    61.737303 
    1300    313.17904   -10401.964            0   -9469.3698    10613.664     780.9601    9.2089394    9.2089394    9.2089394    90.245421 
    1400    313.09167   -10417.355            0   -9485.0214    2291.1979     782.8504    9.2163634    9.2163634    9.2163634    91.193391 
    1500      319.614   -10452.982            0   -9501.2263    16387.111    785.42182    9.2264434    9.2264434    9.2264434     72.11638 
    1600    309.48012   -10438.423            0   -9516.8442    2090.3596    788.79845    9.2396464    9.2396464    9.2396464    70.565284 
    1700     316.5337   -10475.472            0    -9532.889     798.6516    792.05786    9.2523553    9.2523553    9.2523553    90.405044 
    1800    307.62738   -10462.817            0   -9546.7555   -27260.442    794.69715    9.2626208    9.2626208    9.2626208    78.686545 
    1900    297.35517       -10444            0   -9558.5269   -14535.952    796.13611    9.2682081    9.2682081    9.2682081    83.234567 
    2000    290.58277    -10435.31            0    -9570.004   -5344.1997    796.21079    9.2684978    9.2684978    9.2684978    73.848087 
Loop time of 12.7781 on 16 procs for 1000 steps with 1000 atoms

Performance: 6.762 ns/day, 3.549 hours/ns, 78.259 timesteps/s
94.8% CPU use with 16 MPI tasks x no OpenMP threads

MPI task timing breakdown:
Section |  min time  |  avg time  |  max time  |%varavg| %total
---------------------------------------------------------------
Pair    | 1.6675     | 1.7239     | 1.7881     |   2.5 | 13.49
Neigh   | 0.59574    | 0.60732    | 0.62559    |   1.1 |  4.75
Comm    | 0.381      | 0.44847    | 0.51272    |   5.3 |  3.51
Output  | 6.5748     | 6.7902     | 9.9708     |  31.5 | 53.14
Modify  | 0.020448   | 3.2013     | 3.4171     |  45.9 | 25.05
Other   |            | 0.006862   |            |       |  0.05

Nlocal:    62.5 ave 66 max 56 min
Histogram: 1 0 2 0 0 1 3 3 1 5
Nghost:    1830 ave 1848 max 1816 min
Histogram: 2 1 1 5 2 0 2 1 1 1
Neighs:    0 ave 0 max 0 min
Histogram: 16 0 0 0 0 0 0 0 0 0
FullNghs:  18554.6 ave 19582 max 16463 min
Histogram: 1 1 1 0 1 0 3 4 1 4

Total # of neighbors = 296874
Ave neighs/atom = 296.874
Neighbor list builds = 1000
Dangerous builds not checked
Setting up Verlet run ...
  Unit style    : real
  Current step  : 2000
  Time step     : 1
Per MPI rank memory allocation (min/avg/max) = 3.77 | 4.477 | 4.58 Mbytes
Step Temp E_pair E_mol TotEng Press Volume Lx Ly Lz S/CPU 
    2000    290.58277    -10435.31            0    -9570.004   -5344.1997    796.21079    9.2684978    9.2684978    9.2684978            0 
    2100    304.10042   -10485.986            0   -9580.4269   -19369.562    795.47331    9.2656353    9.2656353    9.2656353    80.527873 
    2200    306.61461   -10503.928            0   -9590.8819    -10200.67    793.96443    9.2597732    9.2597732    9.2597732    88.787919 
    2300    300.86838   -10497.011            0   -9601.0762   -14122.762    792.19811    9.2529014    9.2529014    9.2529014    96.812532 
    2400    299.40324   -10502.611            0   -9611.0393   -5139.8495     790.0828    9.2446584    9.2446584    9.2446584    78.127726 
    2500    290.24856   -10483.885            0   -9619.5748    2555.0263    788.14942    9.2371115    9.2371115    9.2371115    76.012327 
    2600    289.60327    -10487.45            0   -9625.0613   -9572.5937    786.44571    9.2304509    9.2304509    9.2304509    102.78429 
    2700    293.18239   -10504.384            0   -9631.3366   -2579.9802    784.46268    9.2226861    9.2226861    9.2226861    101.61134 
    2800    294.22654   -10511.643            0   -9635.4862    5994.5777    782.25415     9.214023     9.214023     9.214023     93.40196 
    2900    304.94825   -10546.966            0   -9638.8819     15758.92    780.20809    9.2059826    9.2059826    9.2059826    70.624584 
    3000    299.04735   -10531.574            0   -9641.0625    3215.9079    778.48268    9.1991913    9.1991913    9.1991913    80.844327 
Loop time of 11.6771 on 16 procs for 1000 steps with 1000 atoms

Performance: 7.399 ns/day, 3.244 hours/ns, 85.637 timesteps/s
94.9% CPU use with 16 MPI tasks x no OpenMP threads

MPI task timing breakdown:
Section |  min time  |  avg time  |  max time  |%varavg| %total
---------------------------------------------------------------
Pair    | 1.6226     | 1.7096     | 1.7828     |   3.2 | 14.64
Neigh   | 0.5878     | 0.60626    | 0.63358    |   1.7 |  5.19
Comm    | 0.36017    | 0.45143    | 0.52951    |   7.3 |  3.87
Output  | 5.5983     | 5.8067     | 8.8823     |  33.0 | 49.73
Modify  | 0.020289   | 3.0963     | 3.3048     |  45.1 | 26.52
Other   |            | 0.006815   |            |       |  0.06

Nlocal:    62.5 ave 75 max 53 min
Histogram: 2 2 1 3 1 3 2 0 1 1
Nghost:    1874.06 ave 1906 max 1838 min
Histogram: 1 0 1 4 1 3 0 4 1 1
Neighs:    0 ave 0 max 0 min
Histogram: 16 0 0 0 0 0 0 0 0 0
FullNghs:  18948.9 ave 22931 max 16248 min
Histogram: 2 3 1 3 1 2 2 0 1 1

Total # of neighbors = 303182
Ave neighs/atom = 303.182
Neighbor list builds = 1000
Dangerous builds not checked
Setting up Verlet run ...
  Unit style    : real
  Current step  : 3000
  Time step     : 1
Per MPI rank memory allocation (min/avg/max) = 4.576 | 4.578 | 4.58 Mbytes
Step Temp E_pair E_mol TotEng Press Volume Lx Ly Lz S/CPU 
    3000    299.04735   -10531.574            0   -9641.0625    3215.9079    778.48268    9.1991913    9.1991913    9.1991913            0 
    3100    297.34821   -10528.561            0   -9643.1085   -5865.7913    776.80139     9.192564     9.192564     9.192564     75.33798 
    3200    297.27122   -10530.751            0   -9645.5277    9815.1602    775.37321    9.1869269    9.1869269    9.1869269    72.967105 
    3300    293.88027   -10520.938            0    -9645.813    19959.377    774.71189    9.1843144    9.1843144    9.1843144    79.798128 
    3400    291.82032   -10514.676            0   -9645.6846    14356.293    775.00614     9.185477     9.185477     9.185477    76.757293 
    3500    300.92364   -10541.098            0   -9644.9992     1602.785    776.25589    9.1904118    9.1904118    9.1904118    92.855447 
    3600    294.12385   -10519.019            0   -9643.1688    4379.9783    777.80073    9.1965044    9.1965044    9.1965044    63.974709 
    3700     297.8767   -10525.811            0   -9638.7846   -387.50144    779.50968    9.2032348    9.2032348    9.2032348    71.156861 
    3800    295.36387    -10514.14            0   -9634.5971    -3510.409    781.24098    9.2100433    9.2100433    9.2100433    67.312827 
    3900    308.57898   -10547.615            0   -9628.7196    10607.116     782.9945    9.2169289    9.2169289    9.2169289    80.492471 
    4000    305.86231   -10533.003            0   -9622.1973   -7335.9624    784.83866    9.2241593    9.2241593    9.2241593    79.708685 
Loop time of 13.2817 on 16 procs for 1000 steps with 1000 atoms

Performance: 6.505 ns/day, 3.689 hours/ns, 75.291 timesteps/s
94.8% CPU use with 16 MPI tasks x no OpenMP threads

MPI task timing breakdown:
Section |  min time  |  avg time  |  max time  |%varavg| %total
---------------------------------------------------------------
Pair    | 1.6918     | 1.7575     | 1.8295     |   3.1 | 13.23
Neigh   | 0.58897    | 0.61082    | 0.65202    |   1.8 |  4.60
Comm    | 0.39894    | 0.48901    | 0.57552    |   7.4 |  3.68
Output  | 6.7696     | 6.9995     | 10.397     |  33.2 | 52.70
Modify  | 0.020385   | 3.4181     | 3.648      |  47.5 | 25.74
Other   |            | 0.006892   |            |       |  0.05

Nlocal:    62.5 ave 66 max 57 min
Histogram: 1 0 1 1 3 2 2 2 1 3
Nghost:    1865.5 ave 1896 max 1845 min
Histogram: 3 1 4 2 2 0 0 1 1 2
Neighs:    0 ave 0 max 0 min
Histogram: 16 0 0 0 0 0 0 0 0 0
FullNghs:  18789.6 ave 20111 max 16877 min
Histogram: 1 0 2 0 3 2 2 2 1 3

Total # of neighbors = 300634
Ave neighs/atom = 300.634
Neighbor list builds = 1000
Dangerous builds not checked
Setting up Verlet run ...
  Unit style    : real
  Current step  : 4000
  Time step     : 1
Per MPI rank memory allocation (min/avg/max) = 4.576 | 4.578 | 4.58 Mbytes
Step Temp E_pair E_mol TotEng Press Volume Lx Ly Lz S/CPU 
    4000    305.86231   -10533.003            0   -9622.1973   -7335.9624    784.83866    9.2241593    9.2241593    9.2241593            0 
    4100     299.3137   -10506.607            0   -9615.3018   -12649.396    786.01713    9.2287738    9.2287738    9.2287738    68.886567 
    4200    302.44577    -10509.02            0   -9608.3878   -11752.004    786.16172    9.2293397    9.2293397    9.2293397    77.288201 
    4300     303.5602   -10503.968            0   -9600.0174   -10171.991     785.4959    9.2267334    9.2267334    9.2267334    81.338518 
    4400    311.93351   -10522.705            0     -9593.82    9182.2419    784.43717    9.2225862    9.2225862    9.2225862    61.550225 
    4500    308.09665   -10505.091            0   -9587.6321    2844.6753    783.20641    9.2177603    9.2177603    9.2177603    100.45026 
    4600     300.1416   -10475.494            0   -9581.7237   -6343.9061    781.81206    9.2122869    9.2122869    9.2122869    73.619053 
    4700    302.46329   -10478.256            0   -9577.5724   -5404.5193    780.24607     9.206132     9.206132     9.206132    60.348938 
    4800    317.88125   -10522.004            0   -9575.4078   -2316.5709    778.78034    9.2003636    9.2003636    9.2003636    79.781486 
    4900    300.07495   -10464.838            0    -9571.266    10449.996    777.62503    9.1958119    9.1958119    9.1958119    96.313108 
    5000    308.38578   -10488.263            0   -9569.9429    1309.3224    776.70572    9.1921867    9.1921867    9.1921867    90.766943 
Loop time of 13.004 on 16 procs for 1000 steps with 1000 atoms

Performance: 6.644 ns/day, 3.612 hours/ns, 76.900 timesteps/s
94.8% CPU use with 16 MPI tasks x no OpenMP threads

MPI task timing breakdown:
Section |  min time  |  avg time  |  max time  |%varavg| %total
---------------------------------------------------------------
Pair    | 1.672      | 1.7395     | 1.8086     |   3.1 | 13.38
Neigh   | 0.59015    | 0.60856    | 0.63207    |   1.7 |  4.68
Comm    | 0.39833    | 0.4794     | 0.56285    |   7.5 |  3.69
Output  | 6.8793     | 7.0866     | 10.149     |  29.7 | 54.50
Modify  | 0.020284   | 3.0831     | 3.2906     |  45.0 | 23.71
Other   |            | 0.00687    |            |       |  0.05

Nlocal:    62.5 ave 68 max 56 min
Histogram: 1 0 2 0 4 4 0 1 2 2
Nghost:    1871.5 ave 1884 max 1852 min
Histogram: 2 1 0 0 1 4 0 2 3 3
Neighs:    0 ave 0 max 0 min
Histogram: 16 0 0 0 0 0 0 0 0 0
FullNghs:  19002.8 ave 20694 max 16784 min
Histogram: 1 0 2 0 5 0 3 1 2 2

Total # of neighbors = 304044
Ave neighs/atom = 304.044
Neighbor list builds = 1000
Dangerous builds not checked
Setting up Verlet run ...
  Unit style    : real
  Current step  : 5000
  Time step     : 1
Per MPI rank memory allocation (min/avg/max) = 4.576 | 4.578 | 4.58 Mbytes
Step Temp E_pair E_mol TotEng Press Volume Lx Ly Lz S/CPU 
    5000    308.38578   -10488.263            0   -9569.9429    1309.3224    776.70572    9.1921867    9.1921867    9.1921867            0 
    5100    305.31549    -10478.86            0   -9569.6827    19606.205    776.15636     9.190019     9.190019     9.190019    68.880461 
    5200    309.04622   -10491.592            0   -9571.3051    2728.1662    776.53925    9.1915299    9.1915299    9.1915299    83.714492 
    5300    304.86582   -10483.594            0   -9575.7561    2186.3676    777.64967     9.195909     9.195909     9.195909      98.3549 
    5400    299.33636   -10472.774            0   -9581.4012    10476.919    779.14239    9.2017892    9.2017892    9.2017892    77.411828 
    5500    304.87068   -10497.803            0   -9589.9504    13635.918    780.89723    9.2086923    9.2086923    9.2086923    67.336462 
    5600    301.35411   -10499.339            0   -9601.9576   -11726.108    783.10938    9.2173796    9.2173796    9.2173796    88.499142 
    5700    292.84695   -10485.652            0   -9613.6035   -8707.2202    785.00691    9.2248184    9.2248184    9.2248184    91.677514 
    5800    300.50952   -10521.373            0   -9626.5068   -1356.4754    786.33139    9.2300036    9.2300036    9.2300036    77.322746 
    5900    297.17574   -10520.862            0   -9635.9235   -10257.757    786.85138    9.2320377    9.2320377    9.2320377    65.480206 
    6000    289.35017   -10504.846            0   -9643.2104   -3335.7198      786.514     9.230718     9.230718     9.230718    75.782569 
Loop time of 12.8007 on 16 procs for 1000 steps with 1000 atoms

Performance: 6.750 ns/day, 3.556 hours/ns, 78.121 timesteps/s
94.8% CPU use with 16 MPI tasks x no OpenMP threads

MPI task timing breakdown:
Section |  min time  |  avg time  |  max time  |%varavg| %total
---------------------------------------------------------------
Pair    | 1.6958     | 1.7471     | 1.799      |   2.6 | 13.65
Neigh   | 0.59075    | 0.60851    | 0.64435    |   1.8 |  4.75
Comm    | 0.38942    | 0.47711    | 0.54086    |   6.6 |  3.73
Output  | 6.3493     | 6.577      | 9.9402     |  33.9 | 51.38
Modify  | 0.02036    | 3.3841     | 3.612      |  47.2 | 26.44
Other   |            | 0.006854   |            |       |  0.05

Nlocal:    62.5 ave 68 max 57 min
Histogram: 2 1 3 0 2 0 2 4 1 1
Nghost:    1857.06 ave 1874 max 1841 min
Histogram: 2 2 2 1 1 1 2 2 0 3
Neighs:    0 ave 0 max 0 min
Histogram: 16 0 0 0 0 0 0 0 0 0
FullNghs:  18761 ave 20451 max 17195 min
Histogram: 2 2 2 0 2 0 3 3 1 1

Total # of neighbors = 300176
Ave neighs/atom = 300.176
Neighbor list builds = 1000
Dangerous builds not checked
Setting up Verlet run ...
  Unit style    : real
  Current step  : 6000
  Time step     : 1
Per MPI rank memory allocation (min/avg/max) = 4.576 | 4.578 | 4.58 Mbytes
Step Temp E_pair E_mol TotEng Press Volume Lx Ly Lz S/CPU 
    6000    289.35017   -10504.846            0   -9643.2104   -3335.7198      786.514     9.230718     9.230718     9.230718            0 
    6100    293.92265   -10524.589            0    -9649.338    5615.1319    785.86438     9.228176     9.228176     9.228176    82.159702 
    6200     294.8881   -10530.232            0   -9652.1054    -12203.36    785.16098    9.2254219    9.2254219    9.2254219    89.590994 
    6300    284.72947   -10500.049            0    -9652.173   -15351.318    783.75738    9.2199213    9.2199213    9.2199213    63.163926 
    6400    297.51189   -10536.528            0   -9650.5885   -2747.2265    781.78486    9.2121801    9.2121801    9.2121801    75.060802 
    6500    296.02477   -10529.161            0   -9647.6502   -1551.8524    779.69361    9.2039587    9.2039587    9.2039587    87.977018 
    6600    289.47636   -10503.833            0   -9641.8223    -5960.356    777.76077    9.1963469    9.1963469    9.1963469    88.441399 
    6700    300.60384    -10530.67            0   -9635.5228    18766.597    775.76654    9.1884801    9.1884801    9.1884801    70.819401 
    6800     298.5861   -10519.359            0   -9630.2209    16201.428    774.36063    9.1829261    9.1829261    9.1829261    85.964069 
    6900    297.68627   -10509.273            0   -9622.8144    7157.7151    773.77085    9.1805941    9.1805941    9.1805941    84.687046 
    7000    302.47272    -10515.99            0   -9615.2779    21733.449    773.79473    9.1806886    9.1806886    9.1806886    80.377759 
Loop time of 12.5164 on 16 procs for 1000 steps with 1000 atoms

Performance: 6.903 ns/day, 3.477 hours/ns, 79.895 timesteps/s
94.9% CPU use with 16 MPI tasks x no OpenMP threads

MPI task timing breakdown:
Section |  min time  |  avg time  |  max time  |%varavg| %total
---------------------------------------------------------------
Pair    | 1.6421     | 1.7496     | 1.7866     |   3.0 | 13.98
Neigh   | 0.58618    | 0.6101     | 0.63818    |   1.5 |  4.87
Comm    | 0.39813    | 0.45437    | 0.58546    |   7.2 |  3.63
Output  | 6.253      | 6.47       | 9.6748     |  32.5 | 51.69
Modify  | 0.020115   | 3.2255     | 3.4427     |  46.1 | 25.77
Other   |            | 0.006855   |            |       |  0.05

Nlocal:    62.5 ave 67 max 58 min
Histogram: 2 0 3 1 0 4 2 2 1 1
Nghost:    1861.88 ave 1890 max 1836 min
Histogram: 2 3 1 1 0 1 3 2 1 2
Neighs:    0 ave 0 max 0 min
Histogram: 16 0 0 0 0 0 0 0 0 0
FullNghs:  19080.1 ave 20607 max 17770 min
Histogram: 2 3 0 1 3 2 1 2 1 1

Total # of neighbors = 305282
Ave neighs/atom = 305.282
Neighbor list builds = 1000
Dangerous builds not checked
Setting up Verlet run ...
  Unit style    : real
  Current step  : 7000
  Time step     : 1
Per MPI rank memory allocation (min/avg/max) = 4.576 | 4.578 | 4.58 Mbytes
Step Temp E_pair E_mol TotEng Press Volume Lx Ly Lz S/CPU 
    7000    302.47272    -10515.99            0   -9615.2779    21733.449    773.79473    9.1806886    9.1806886    9.1806886            0 
    7100    297.26865   -10491.886            0   -9606.6704    21731.808    775.07207    9.1857375    9.1857375    9.1857375    57.411867 
    7200    306.84886    -10511.69            0   -9597.9462    18740.768    777.47992    9.1952398    9.1952398    9.1952398    87.219775 
    7300    305.15072   -10496.032            0   -9587.3457   -9255.9498    780.50872    9.2071649    9.2071649    9.2071649    85.584577 
    7400    294.98732   -10456.938            0   -9578.5158     8026.935     783.5845    9.2192434    9.2192434    9.2192434    65.573915 
    7500    290.73015   -10434.224            0   -9568.4788   -6646.0218    787.02214    9.2327055    9.2327055    9.2327055    71.431271 
    7600    296.88096    -10444.39            0   -9560.3296     -20661.9    790.07474     9.244627     9.244627     9.244627    92.651098 
    7700    294.14499   -10428.956            0   -9553.0426   -10722.288    792.07131    9.2524077    9.2524077    9.2524077    89.350482 
    7800    292.22511   -10417.756            0   -9547.5596   -2907.3403    793.07423    9.2563112    9.2563112    9.2563112    80.109477 
    7900    313.28876   -10476.838            0   -9543.9176   -19839.837    793.28616    9.2571356    9.2571356    9.2571356    62.925414 
    8000    304.89861   -10448.951            0   -9541.0153   -13835.843    792.48333    9.2540117    9.2540117    9.2540117    82.844791 
Loop time of 13.2248 on 16 procs for 1000 steps with 1000 atoms

Performance: 6.533 ns/day, 3.674 hours/ns, 75.616 timesteps/s
94.7% CPU use with 16 MPI tasks x no OpenMP threads

MPI task timing breakdown:
Section |  min time  |  avg time  |  max time  |%varavg| %total
---------------------------------------------------------------
Pair    | 1.6738     | 1.7258     | 1.7716     |   1.8 | 13.05
Neigh   | 0.59359    | 0.60785    | 0.63379    |   1.6 |  4.60
Comm    | 0.42593    | 0.47466    | 0.54099    |   4.8 |  3.59
Output  | 6.7195     | 6.952      | 10.389     |  33.7 | 52.57
Modify  | 0.020212   | 3.4577     | 3.6902     |  47.7 | 26.15
Other   |            | 0.00681    |            |       |  0.05

Nlocal:    62.5 ave 67 max 55 min
Histogram: 1 0 2 2 0 1 1 2 4 3
Nghost:    1845.81 ave 1864 max 1830 min
Histogram: 4 1 3 0 0 1 0 4 1 2
Neighs:    0 ave 0 max 0 min
Histogram: 16 0 0 0 0 0 0 0 0 0
FullNghs:  18609.4 ave 20103 max 16210 min
Histogram: 1 0 2 2 1 0 1 4 3 2

Total # of neighbors = 297750
Ave neighs/atom = 297.75
Neighbor list builds = 1000
Dangerous builds not checked
Setting up Verlet run ...
  Unit style    : real
  Current step  : 8000
  Time step     : 1
Per MPI rank memory allocation (min/avg/max) = 4.576 | 4.578 | 4.58 Mbytes
Step Temp E_pair E_mol TotEng Press Volume Lx Ly Lz S/CPU 
    8000    304.89861   -10448.951            0   -9541.0153   -13835.843    792.48333    9.2540117    9.2540117    9.2540117            0 
    8100    304.72416   -10447.519            0   -9540.1024   -9828.8431    790.92319     9.247935     9.247935     9.247935    97.774089 
    8200    311.33237   -10469.601            0   -9542.5068    1301.6365    788.53404    9.2386139    9.2386139    9.2386139    66.587078 
    8300     305.8588   -10454.141            0    -9543.346    1917.8329    786.16307     9.229345     9.229345     9.229345    70.604806 
    8400    306.27975   -10458.943            0   -9546.8946    9821.2482    784.16502    9.2215195    9.2215195    9.2215195    75.300154 
    8500    305.47451   -10460.857            0   -9551.2056    6323.0457    782.55445    9.2152019    9.2152019    9.2152019    81.056761 
    8600    313.25598   -10490.028            0   -9557.2057    6119.1005    781.47533    9.2109641    9.2109641    9.2109641     75.52521 
    8700    314.95557   -10500.219            0   -9562.3353    1865.0009    781.13121    9.2096119    9.2096119    9.2096119    83.997248 
    8800    313.59273   -10502.067            0   -9568.2415    23336.361    781.20493    9.2099016    9.2099016    9.2099016    78.582113 
    8900    301.58916   -10473.802            0   -9575.7207     7108.952    782.00038    9.2130265    9.2130265    9.2130265    105.57895 
    9000    293.33415   -10457.565            0    -9584.066    6270.7155    783.30597    9.2181509    9.2181509    9.2181509    61.633438 
Loop time of 12.8594 on 16 procs for 1000 steps with 1000 atoms

Performance: 6.719 ns/day, 3.572 hours/ns, 77.764 timesteps/s
94.8% CPU use with 16 MPI tasks x no OpenMP threads

MPI task timing breakdown:
Section |  min time  |  avg time  |  max time  |%varavg| %total
---------------------------------------------------------------
Pair    | 1.6703     | 1.7269     | 1.7831     |   2.3 | 13.43
Neigh   | 0.59126    | 0.60721    | 0.64187    |   1.7 |  4.72
Comm    | 0.38323    | 0.4742     | 0.54758    |   5.8 |  3.69
Output  | 6.7082     | 6.9185     | 10.024     |  30.5 | 53.80
Modify  | 0.020283   | 3.1258     | 3.3362     |  45.4 | 24.31
Other   |            | 0.006823   |            |       |  0.05

Nlocal:    62.5 ave 68 max 57 min
Histogram: 3 1 0 1 2 1 5 1 0 2
Nghost:    1864.69 ave 1890 max 1836 min
Histogram: 1 0 2 3 2 0 3 3 1 1
Neighs:    0 ave 0 max 0 min
Histogram: 16 0 0 0 0 0 0 0 0 0
FullNghs:  18850 ave 20510 max 17107 min
Histogram: 1 3 0 1 2 2 2 3 0 2

Total # of neighbors = 301600
Ave neighs/atom = 301.6
Neighbor list builds = 1000
Dangerous builds not checked
Setting up Verlet run ...
  Unit style    : real
  Current step  : 9000
  Time step     : 1
Per MPI rank memory allocation (min/avg/max) = 4.576 | 4.578 | 4.58 Mbytes
Step Temp E_pair E_mol TotEng Press Volume Lx Ly Lz S/CPU 
    9000    293.33415   -10457.565            0    -9584.066    6270.7155    783.30597    9.2181509    9.2181509    9.2181509            0 
    9100    302.46564   -10493.388            0   -9592.6965   -10609.232    784.66886    9.2234941    9.2234941    9.2234941    75.460089 
    9200    309.16717   -10520.368            0   -9599.7205   -9587.1509    785.98583    9.2286514    9.2286514    9.2286514    78.673853 
    9300    302.56176    -10508.12            0   -9607.1429    3814.2122    786.95601    9.2324469    9.2324469    9.2324469    62.940707 
    9400    303.77503   -10518.293            0   -9613.7029   -11927.732    787.77957    9.2356664    9.2356664    9.2356664    75.145647 
    9500     301.0286   -10516.318            0   -9619.9058   -9710.8036    788.07882    9.2368357    9.2368357    9.2368357    87.280786 
    9600    294.52111   -10502.055            0   -9625.0215    -12146.42    787.45434    9.2343953    9.2343953    9.2343953    83.047177 
    9700     303.1139   -10531.499            0   -9628.8776   -8213.2452    785.60958    9.2271785    9.2271785    9.2271785    71.687394 
    9800    288.03151   -10488.848            0   -9631.1394   -3288.7947    783.05908    9.2171823    9.2171823    9.2171823    78.577394 
    9900    303.24476   -10537.316            0   -9634.3049    7399.6422    780.44049    9.2068966    9.2068966    9.2068966     77.06717 
   10000    301.23179   -10533.769            0   -9636.7523    5516.7359    777.84923    9.1966955    9.1966955    9.1966955    76.837006 
Loop time of 13.1323 on 16 procs for 1000 steps with 1000 atoms

Performance: 6.579 ns/day, 3.648 hours/ns, 76.148 timesteps/s
94.8% CPU use with 16 MPI tasks x no OpenMP threads

MPI task timing breakdown:
Section |  min time  |  avg time  |  max time  |%varavg| %total
---------------------------------------------------------------
Pair    | 1.6167     | 1.7283     | 1.8021     |   3.2 | 13.16
Neigh   | 0.5915     | 0.60829    | 0.65245    |   1.7 |  4.63
Comm    | 0.38434    | 0.50227    | 0.61577    |   7.2 |  3.82
Output  | 7.0412     | 7.2461     | 10.266     |  29.0 | 55.18
Modify  | 0.020423   | 3.0405     | 3.2455     |  44.7 | 23.15
Other   |            | 0.006824   |            |       |  0.05

Nlocal:    62.5 ave 66 max 58 min
Histogram: 2 1 0 4 0 1 2 1 1 4
Nghost:    1868.81 ave 1878 max 1852 min
Histogram: 1 0 3 0 0 1 1 5 2 3
Neighs:    0 ave 0 max 0 min
Histogram: 16 0 0 0 0 0 0 0 0 0
FullNghs:  18974.4 ave 20218 max 17504 min
Histogram: 3 0 0 3 2 1 1 1 1 4

Total # of neighbors = 303590
Ave neighs/atom = 303.59
Neighbor list builds = 1000
Dangerous builds not checked
Setting up Verlet run ...
  Unit style    : real
  Current step  : 10000
  Time step     : 1
Per MPI rank memory allocation (min/avg/max) = 4.576 | 4.578 | 4.58 Mbytes
Step Temp E_pair E_mol TotEng Press Volume Lx Ly Lz S/CPU 
   10000    301.23179   -10533.769            0   -9636.7523    5516.7359    777.84923    9.1966955    9.1966955    9.1966955            0 
   10100    301.37131   -10537.081            0   -9639.6484    4622.8455    775.62651    9.1879273    9.1879273    9.1879273    65.869725 
   10200    292.56636   -10513.131            0   -9641.9184    8907.0959    774.34483    9.1828636    9.1828636    9.1828636     79.92004 
   10300    289.52492   -10507.465            0   -9645.3094    7976.8985    774.32971    9.1828038    9.1828038    9.1828038    75.939807 
   10400    293.37134   -10525.335            0   -9651.7248    24438.264     775.2867    9.1865853    9.1865853    9.1865853    71.251539 
   10500    298.82968   -10548.622            0   -9658.7581    11330.246    777.15576    9.1939617    9.1939617    9.1939617    69.588198 
   10600    295.29845   -10546.828            0   -9667.4797   -1494.5604    779.16812    9.2018904    9.2018904    9.2018904    82.048657 
   10700    301.78668   -10577.374            0   -9678.7046     1176.178    780.88737    9.2086535    9.2086535    9.2086535    78.701044 
   10800    299.15591   -10581.807            0   -9690.9715   -4688.8786    782.53958    9.2151435    9.2151435    9.2151435    81.342133 
   10900    296.43541   -10584.434            0   -9701.6996   -10923.805    784.19454    9.2216352    9.2216352    9.2216352    67.577636 
   11000    288.58405   -10570.068            0   -9710.7145    2006.9332    785.33897    9.2261189    9.2261189    9.2261189    77.070643 
Loop time of 13.4229 on 16 procs for 1000 steps with 1000 atoms

Performance: 6.437 ns/day, 3.729 hours/ns, 74.500 timesteps/s
94.7% CPU use with 16 MPI tasks x no OpenMP threads

MPI task timing breakdown:
Section |  min time  |  avg time  |  max time  |%varavg| %total
---------------------------------------------------------------
Pair    | 1.6927     | 1.7546     | 1.8271     |   2.7 | 13.07
Neigh   | 0.59727    | 0.61053    | 0.64271    |   1.7 |  4.55
Comm    | 0.38085    | 0.48535    | 0.56133    |   6.7 |  3.62
Output  | 7.1048     | 7.323      | 10.545     |  30.7 | 54.56
Modify  | 0.020308   | 3.2425     | 3.4608     |  46.2 | 24.16
Other   |            | 0.006876   |            |       |  0.05

Nlocal:    62.5 ave 69 max 59 min
Histogram: 2 3 2 3 1 1 1 1 1 1
Nghost:    1857.31 ave 1875 max 1833 min
Histogram: 1 1 3 1 1 1 2 0 1 5
Neighs:    0 ave 0 max 0 min
Histogram: 16 0 0 0 0 0 0 0 0 0
FullNghs:  18795.9 ave 20801 max 17608 min
Histogram: 2 4 2 2 1 2 1 0 1 1

Total # of neighbors = 300734
Ave neighs/atom = 300.734
Neighbor list builds = 1000
Dangerous builds not checked
Setting up Verlet run ...
  Unit style    : real
  Current step  : 11000
  Time step     : 1
Per MPI rank memory allocation (min/avg/max) = 4.576 | 4.578 | 4.58 Mbytes
Step Temp E_pair E_mol TotEng Press Volume Lx Ly Lz S/CPU 
   11000    288.58405   -10570.068            0   -9710.7145    2006.9332    785.33897    9.2261189    9.2261189    9.2261189            0 
   11100    283.15744   -10559.558            0   -9716.3635   -17828.597    785.80535    9.2279449    9.2279449    9.2279449    104.59719 
   11200    295.93373   -10602.035            0   -9720.7949   -8188.2604    785.08181    9.2251118    9.2251118    9.2251118    60.827269 
   11300    295.54184   -10601.565            0   -9721.4917   -17676.613    783.39335    9.2184936    9.2184936    9.2184936    64.334648 
   11400    289.47245   -10581.166            0   -9719.1662   -4309.2053    781.33399    9.2104088    9.2104088    9.2104088    91.559299 
   11500    297.68172   -10600.814            0   -9714.3683    554.12511    778.99321    9.2012018    9.2012018    9.2012018    93.288084 
   11600    287.10046   -10561.204            0   -9706.2683   -8939.4717     776.7022    9.1921728    9.1921728    9.1921728    73.658593 
   11700    296.00484   -10576.478            0   -9695.0262    21932.306    774.71008    9.1843072    9.1843072    9.1843072    72.737173 
   11800    292.74811   -10550.942            0   -9679.1878    21965.759    773.51271    9.1795731    9.1795731    9.1795731    83.532171 
   11900    295.72913   -10545.616            0   -9664.9856   -2710.4611     772.9961     9.177529     9.177529     9.177529    99.114598 
   12000    302.44358   -10554.057            0   -9653.4312    4787.1091    772.93104    9.1772716    9.1772716    9.1772716    65.808925 
Loop time of 12.7766 on 16 procs for 1000 steps with 1000 atoms

Performance: 6.762 ns/day, 3.549 hours/ns, 78.268 timesteps/s
94.9% CPU use with 16 MPI tasks x no OpenMP threads

MPI task timing breakdown:
Section |  min time  |  avg time  |  max time  |%varavg| %total
---------------------------------------------------------------
Pair    | 1.6708     | 1.7489     | 1.8247     |   3.0 | 13.69
Neigh   | 0.59087    | 0.60983    | 0.63268    |   1.5 |  4.77
Comm    | 0.40197    | 0.48498    | 0.56187    |   6.8 |  3.80
Output  | 6.4945     | 6.7109     | 9.9053     |  31.8 | 52.52
Modify  | 0.020106   | 3.2152     | 3.4319     |  46.0 | 25.16
Other   |            | 0.006876   |            |       |  0.05

Nlocal:    62.5 ave 68 max 57 min
Histogram: 3 0 0 4 1 2 1 1 2 2
Nghost:    1876.44 ave 1896 max 1852 min
Histogram: 3 0 1 1 2 1 0 3 1 4
Neighs:    0 ave 0 max 0 min
Histogram: 16 0 0 0 0 0 0 0 0 0
FullNghs:  19108.4 ave 20677 max 17307 min
Histogram: 2 1 0 2 2 2 2 1 1 3

Total # of neighbors = 305734
Ave neighs/atom = 305.734
Neighbor list builds = 1000
Dangerous builds not checked
Setting up Verlet run ...
  Unit style    : real
  Current step  : 12000
  Time step     : 1
Per MPI rank memory allocation (min/avg/max) = 4.576 | 4.578 | 4.58 Mbytes
Step Temp E_pair E_mol TotEng Press Volume Lx Ly Lz S/CPU 
   12000    302.44358   -10554.057            0   -9653.4312    4787.1091    772.93104    9.1772716    9.1772716    9.1772716            0 
   12100    298.49631    -10533.88            0   -9645.0091    6499.7133     773.2517    9.1785405    9.1785405    9.1785405    67.284878 
   12200    300.50491   -10534.677            0   -9639.8251    20833.856    773.91634    9.1811695    9.1811695    9.1811695    78.678796 
   12300    291.94219   -10506.069            0   -9636.7154    4126.9971    775.44746    9.1872202    9.1872202    9.1872202    82.449928 
   12400    290.32126    -10499.22            0   -9634.6932    5205.9099    777.77241    9.1963928    9.1963928    9.1963928    56.169268 
   12500    303.40866   -10536.729            0     -9633.23   -2519.3798     780.7385    9.2080683    9.2080683    9.2080683    70.774128 
   12600    300.72644   -10525.184            0    -9629.672   -6762.9228    783.60068    9.2193068    9.2193068    9.2193068    100.57368 
   12700    300.04586   -10520.029            0   -9626.5437   -2802.1207    786.02768    9.2288151    9.2288151    9.2288151    66.008239 
   12800    304.94619   -10530.947            0   -9622.8691   -749.52966    788.20404    9.2373249    9.2373249    9.2373249    74.437216 
   12900     302.2952   -10519.042            0   -9618.8585   -10739.477     789.8524    9.2437597    9.2437597    9.2437597    91.141883 
   13000    297.11561   -10498.528            0   -9613.7685    -13988.38    790.52784    9.2463939    9.2463939    9.2463939    83.246018 
Loop time of 13.3145 on 16 procs for 1000 steps with 1000 atoms

Performance: 6.489 ns/day, 3.698 hours/ns, 75.106 timesteps/s
94.7% CPU use with 16 MPI tasks x no OpenMP threads

MPI task timing breakdown:
Section |  min time  |  avg time  |  max time  |%varavg| %total
---------------------------------------------------------------
Pair    | 1.6676     | 1.741      | 1.8148     |   2.9 | 13.08
Neigh   | 0.59071    | 0.60747    | 0.6288     |   1.5 |  4.56
Comm    | 0.35815    | 0.45306    | 0.54162    |   7.0 |  3.40
Output  | 6.787      | 7.0208     | 10.486     |  33.8 | 52.73
Modify  | 0.019818   | 3.4853     | 3.719      |  47.9 | 26.18
Other   |            | 0.006841   |            |       |  0.05

Nlocal:    62.5 ave 67 max 52 min
Histogram: 1 0 0 1 1 2 1 2 4 4
Nghost:    1861.25 ave 1887 max 1830 min
Histogram: 1 1 1 1 3 3 1 2 1 2
Neighs:    0 ave 0 max 0 min
Histogram: 16 0 0 0 0 0 0 0 0 0
FullNghs:  18667.9 ave 20014 max 15388 min
Histogram: 1 0 0 1 1 2 1 3 3 4

Total # of neighbors = 298686
Ave neighs/atom = 298.686
Neighbor list builds = 1000
Dangerous builds not checked
Setting up Verlet run ...
  Unit style    : real
  Current step  : 13000
  Time step     : 1
Per MPI rank memory allocation (min/avg/max) = 4.576 | 4.578 | 4.58 Mbytes
Step Temp E_pair E_mol TotEng Press Volume Lx Ly Lz S/CPU 
   13000    297.11561   -10498.528            0   -9613.7685    -13988.38    790.52784    9.2463939    9.2463939    9.2463939            0 
   13100    302.61244   -10511.153            0   -9610.0247   -14598.504    790.21481    9.2451733    9.2451733    9.2451733    69.016792 
   13200    305.53718   -10516.508            0   -9606.6702   -809.62691    789.31219    9.2416518    9.2416518    9.2416518    69.289505 
   13300    286.90609   -10455.429            0   -9601.0718   -8538.5671    788.15353    9.2371276    9.2371276    9.2371276    69.428949 
   13400    305.90117   -10508.818            0   -9597.8965    11268.922    786.82846    9.2319481    9.2319481    9.2319481    76.994479 
   13500    298.75756   -10483.122            0   -9593.4728   -3981.9617    785.61209    9.2271884    9.2271884    9.2271884     71.35758 
   13600    312.09124   -10517.368            0    -9588.014    7368.4995     784.3222    9.2221356    9.2221356    9.2221356    78.321948 
   13700    305.01478   -10488.686            0   -9580.4044    8152.2548    783.38378    9.2184561    9.2184561    9.2184561    99.073018 
   13800    313.73287   -10508.348            0   -9574.1053    8269.3433    782.95757     9.216784     9.216784     9.216784    89.250266 
   13900     307.5176   -10481.333            0   -9565.5978    6779.7929    783.08919    9.2173004    9.2173004    9.2173004    58.088518 
   14000    319.43666   -10510.684            0   -9559.4557    10676.576    783.73911    9.2198497    9.2198497    9.2198497    83.996642 
Loop time of 13.3513 on 16 procs for 1000 steps with 1000 atoms

Performance: 6.471 ns/day, 3.709 hours/ns, 74.899 timesteps/s
94.7% CPU use with 16 MPI tasks x no OpenMP threads

MPI task timing breakdown:
Section |  min time  |  avg time  |  max time  |%varavg| %total
---------------------------------------------------------------
Pair    | 1.6607     | 1.7191     | 1.7817     |   2.8 | 12.88
Neigh   | 0.58747    | 0.60523    | 0.62018    |   1.1 |  4.53
Comm    | 0.38208    | 0.45254    | 0.52853    |   6.4 |  3.39
Output  | 7.2047     | 7.4163     | 10.548     |  29.7 | 55.55
Modify  | 0.019641   | 3.1513     | 3.363      |  45.5 | 23.60
Other   |            | 0.006844   |            |       |  0.05

Nlocal:    62.5 ave 65 max 56 min
Histogram: 1 0 0 1 0 1 3 4 4 2
Nghost:    1854.31 ave 1863 max 1844 min
Histogram: 2 0 1 1 3 4 0 1 2 2
Neighs:    0 ave 0 max 0 min
Histogram: 16 0 0 0 0 0 0 0 0 0
FullNghs:  18823.5 ave 19623 max 16808 min
Histogram: 1 0 0 1 0 1 3 4 2 4

Total # of neighbors = 301176
Ave neighs/atom = 301.176
Neighbor list builds = 1000
Dangerous builds not checked
Setting up Verlet run ...
  Unit style    : real
  Current step  : 14000
  Time step     : 1
Per MPI rank memory allocation (min/avg/max) = 4.576 | 4.578 | 4.58 Mbytes
Step Temp E_pair E_mol TotEng Press Volume Lx Ly Lz S/CPU 
   14000    319.43666   -10510.684            0   -9559.4557    10676.576    783.73911    9.2198497    9.2198497    9.2198497            0 
   14100    300.66035   -10448.276            0   -9552.9604    2643.8973    784.42919    9.2225549    9.2225549    9.2225549    95.879066 
   14200    306.91014   -10463.969            0   -9550.0431    7468.8845     785.1597    9.2254169    9.2254169    9.2254169    92.841749 
   14300    310.28989    -10472.23            0   -9548.2393    796.95284    786.08312    9.2290321    9.2290321    9.2290321    61.389648 
   14400    298.14959   -10435.772            0   -9547.9333   -7935.8404    786.97114    9.2325061    9.2325061    9.2325061    80.566046 
   14500    312.90944   -10482.739            0   -9550.9486   -16029.334    787.40158     9.234189     9.234189     9.234189    90.587252 
   14600    302.83341   -10457.937            0   -9556.1508    -12530.64    786.95291    9.2324348    9.2324348    9.2324348     85.47585 
   14700    300.17904   -10457.204            0   -9563.3221   -3517.3712     785.7253    9.2276316    9.2276316    9.2276316    61.432703 
   14800    305.62366   -10483.661            0   -9573.5663   -1813.2688    784.43335    9.2225712    9.2225712    9.2225712    82.812306 
   14900    305.43518   -10497.264            0   -9587.7302    6511.7334    783.40672    9.2185461    9.2185461    9.2185461    92.467689 
   15000    303.26459   -10503.455            0   -9600.3851   -4595.8414    782.67695    9.2156827    9.2156827    9.2156827    91.105386 
Loop time of 12.2785 on 16 procs for 1000 steps with 1000 atoms

Performance: 7.037 ns/day, 3.411 hours/ns, 81.443 timesteps/s
94.8% CPU use with 16 MPI tasks x no OpenMP threads

MPI task timing breakdown:
Section |  min time  |  avg time  |  max time  |%varavg| %total
---------------------------------------------------------------
Pair    | 1.6653     | 1.7259     | 1.7897     |   2.9 | 14.06
Neigh   | 0.59151    | 0.60592    | 0.62348    |   1.2 |  4.93
Comm    | 0.37143    | 0.4432     | 0.51432    |   6.7 |  3.61
Output  | 6.4144     | 6.6085     | 9.4768     |  28.8 | 53.82
Modify  | 0.019724   | 2.8882     | 3.0823     |  43.6 | 23.52
Other   |            | 0.006805   |            |       |  0.06

Nlocal:    62.5 ave 72 max 56 min
Histogram: 2 3 1 2 3 1 2 0 1 1
Nghost:    1858 ave 1881 max 1837 min
Histogram: 1 2 1 2 0 6 0 2 1 1
Neighs:    0 ave 0 max 0 min
Histogram: 16 0 0 0 0 0 0 0 0 0
FullNghs:  18853.9 ave 21542 max 16827 min
Histogram: 2 2 2 1 4 1 0 2 1 1

Total # of neighbors = 301662
Ave neighs/atom = 301.662
Neighbor list builds = 1000
Dangerous builds not checked
Setting up Verlet run ...
  Unit style    : real
  Current step  : 15000
  Time step     : 1
Per MPI rank memory allocation (min/avg/max) = 4.576 | 4.578 | 4.58 Mbytes
Step Temp E_pair E_mol TotEng Press Volume Lx Ly Lz S/CPU 
   15000    303.26459   -10503.455            0   -9600.3851   -4595.8414    782.67695    9.2156827    9.2156827    9.2156827            0 
   15100    296.01669   -10494.681            0   -9613.1936   -2596.3096    781.98583    9.2129694    9.2129694    9.2129694    67.230479 
   15200    307.92379   -10541.422            0    -9624.478    5722.0496    781.32885    9.2103886    9.2103886    9.2103886    94.165901 
   15300    302.97863   -10534.104            0   -9631.8857    8001.9537    780.92902    9.2088172    9.2088172    9.2088172    78.822671 
   15400    299.77804   -10530.508            0   -9637.8198    7854.9253    781.04369     9.209268     9.209268     9.209268    72.127022 
   15500    305.28513   -10551.816            0   -9642.7285   -238.03146    781.42257    9.2107568    9.2107568    9.2107568    66.165508 
   15600    289.10903   -10506.026            0   -9645.1087    1753.8309    781.53137    9.2111843    9.2111843    9.2111843    76.645621 
   15700    282.29528   -10486.677            0   -9646.0502   -8135.2366    781.26546    9.2101395    9.2101395    9.2101395    80.660671 
   15800     307.6201   -10565.368            0   -9649.3281    9263.3059    780.69544     9.207899     9.207899     9.207899    102.33047 
   15900     289.6916   -10510.785            0   -9648.1329   -17494.594    780.05432    9.2053778    9.2053778    9.2053778    66.761419 
   16000    294.52517   -10524.749            0   -9647.7028   -1759.4512    778.67263    9.1999395    9.1999395    9.1999395    76.367209 
Loop time of 13.0449 on 16 procs for 1000 steps with 1000 atoms

Performance: 6.623 ns/day, 3.624 hours/ns, 76.658 timesteps/s
94.8% CPU use with 16 MPI tasks x no OpenMP threads

MPI task timing breakdown:
Section |  min time  |  avg time  |  max time  |%varavg| %total
---------------------------------------------------------------
Pair    | 1.6777     | 1.7428     | 1.7998     |   3.0 | 13.36
Neigh   | 0.58921    | 0.60737    | 0.63346    |   1.7 |  4.66
Comm    | 0.38341    | 0.4634     | 0.5451     |   7.5 |  3.55
Output  | 6.6002     | 6.8281     | 10.205     |  33.4 | 52.34
Modify  | 0.019654   | 3.3964     | 3.6245     |  47.3 | 26.04
Other   |            | 0.006832   |            |       |  0.05

Nlocal:    62.5 ave 71 max 55 min
Histogram: 1 4 0 1 2 3 2 0 2 1
Nghost:    1864.25 ave 1892 max 1840 min
Histogram: 1 2 2 2 0 4 4 0 0 1
Neighs:    0 ave 0 max 0 min
Histogram: 16 0 0 0 0 0 0 0 0 0
FullNghs:  18933.4 ave 21399 max 16651 min
Histogram: 1 3 1 1 2 4 1 0 1 2

Total # of neighbors = 302934
Ave neighs/atom = 302.934
Neighbor list builds = 1000
Dangerous builds not checked
Setting up Verlet run ...
  Unit style    : real
  Current step  : 16000
  Time step     : 1
Per MPI rank memory allocation (min/avg/max) = 4.576 | 4.578 | 4.58 Mbytes
Step Temp E_pair E_mol TotEng Press Volume Lx Ly Lz S/CPU 
   16000    294.52517   -10524.749            0   -9647.7028   -1759.4512    778.67263    9.1999395    9.1999395    9.1999395            0 
   16100    290.56323   -10511.468            0   -9646.2206    1182.6006    776.83382     9.192692     9.192692     9.192692    84.734083 
   16200    301.59711   -10543.521            0   -9645.4161    9123.7386    775.09987    9.1858473    9.1858473    9.1858473    90.877117 
   16300    307.46178   -10559.318            0   -9643.7491    8149.8335     773.7627    9.1805619    9.1805619    9.1805619    66.710333 
   16400    294.59452   -10516.923            0   -9639.6705    10917.199    772.84216    9.1769198    9.1769198    9.1769198    83.969056 
   16500    301.06387   -10534.543            0   -9638.0258    19250.272    772.75847    9.1765885    9.1765885    9.1765885     91.20532 
   16600    304.16419   -10542.073            0   -9636.3241    21631.208    773.90611     9.181129     9.181129     9.181129    80.489821 
   16700    300.39947     -10528.3            0    -9633.762     17210.39     776.4211    9.1910637    9.1910637    9.1910637    69.522655 
   16800    302.97553   -10531.428            0   -9629.2183   -5105.2567    779.97023     9.205047     9.205047     9.205047    84.979965 
   16900     299.3423   -10512.566            0   -9621.1761   -13785.744    783.66769    9.2195696    9.2195696    9.2195696    94.754019 
   17000    293.46579   -10484.508            0   -9610.6174   -26550.228    786.93915     9.232381     9.232381     9.232381    85.918098 
Loop time of 12.1437 on 16 procs for 1000 steps with 1000 atoms

Performance: 7.115 ns/day, 3.373 hours/ns, 82.347 timesteps/s
94.9% CPU use with 16 MPI tasks x no OpenMP threads

MPI task timing breakdown:
Section |  min time  |  avg time  |  max time  |%varavg| %total
---------------------------------------------------------------
Pair    | 1.6872     | 1.7637     | 1.8385     |   3.7 | 14.52
Neigh   | 0.59118    | 0.61065    | 0.64043    |   1.6 |  5.03
Comm    | 0.38492    | 0.47174    | 0.56761    |   8.4 |  3.88
Output  | 6.0939     | 6.2952     | 9.2705     |  30.6 | 51.84
Modify  | 0.019879   | 2.9955     | 3.1971     |  44.4 | 24.67
Other   |            | 0.006886   |            |       |  0.06

Nlocal:    62.5 ave 67 max 54 min
Histogram: 1 0 0 1 2 1 4 2 3 2
Nghost:    1849.19 ave 1873 max 1822 min
Histogram: 2 0 1 3 1 1 4 1 1 2
Neighs:    0 ave 0 max 0 min
Histogram: 16 0 0 0 0 0 0 0 0 0
FullNghs:  18744 ave 20246 max 16114 min
Histogram: 1 0 0 1 3 2 0 4 3 2

Total # of neighbors = 299904
Ave neighs/atom = 299.904
Neighbor list builds = 1000
Dangerous builds not checked
Setting up Verlet run ...
  Unit style    : real
  Current step  : 17000
  Time step     : 1
Per MPI rank memory allocation (min/avg/max) = 4.576 | 4.578 | 4.58 Mbytes
Step Temp E_pair E_mol TotEng Press Volume Lx Ly Lz S/CPU 
   17000    293.46579   -10484.508            0   -9610.6174   -26550.228    786.93915     9.232381     9.232381     9.232381            0 
   17100    284.89268   -10446.406            0   -9598.0445   -19263.509    789.16883    9.2410923    9.2410923    9.2410923    62.601515 
   17200    287.72538   -10441.243            0   -9584.4463   -4876.9349    790.60267    9.2466856    9.2466856    9.2466856    79.027666 
   17300    305.47949   -10482.797            0   -9573.1308   -6776.8911    791.40692      9.24982      9.24982      9.24982    88.315132 
   17400    293.83453   -10437.757            0   -9562.7682   -13406.034      791.397    9.2497813    9.2497813    9.2497813    94.177542 
   17500     304.1753   -10461.912            0   -9556.1295    55.359121    790.50964    9.2463229    9.2463229    9.2463229    65.945436 
   17600    318.20608   -10499.663            0   -9552.0996    5840.1032    789.39391    9.2419708    9.2419708    9.2419708    81.790425 
   17700    310.22949   -10472.828            0   -9549.0174     3379.783    788.72344    9.2393535    9.2393535    9.2393535    107.67306 
   17800    303.05169   -10451.045            0   -9548.6092   -8710.9034    788.14464    9.2370928    9.2370928    9.2370928    83.989232 
   17900    305.35368    -10458.72            0   -9549.4288    6426.0747    787.28144    9.2337194    9.2337194    9.2337194    55.863242 
   18000    304.04007   -10457.948            0   -9552.5689    229.89376    786.52841    9.2307744    9.2307744    9.2307744    78.052215 
Loop time of 12.9866 on 16 procs for 1000 steps with 1000 atoms

Performance: 6.653 ns/day, 3.607 hours/ns, 77.002 timesteps/s
94.8% CPU use with 16 MPI tasks x no OpenMP threads

MPI task timing breakdown:
Section |  min time  |  avg time  |  max time  |%varavg| %total
---------------------------------------------------------------
Pair    | 1.6367     | 1.7062     | 1.8242     |   3.7 | 13.14
Neigh   | 0.59219    | 0.6057     | 0.63225    |   1.7 |  4.66
Comm    | 0.32847    | 0.46073    | 0.54374    |   8.4 |  3.55
Output  | 6.697      | 6.9181     | 10.187     |  32.1 | 53.27
Modify  | 0.020149   | 3.289      | 3.5103     |  46.5 | 25.33
Other   |            | 0.006809   |            |       |  0.05

Nlocal:    62.5 ave 66 max 58 min
Histogram: 1 1 0 4 0 2 3 1 2 2
Nghost:    1850 ave 1876 max 1828 min
Histogram: 2 0 3 1 4 0 3 2 0 1
Neighs:    0 ave 0 max 0 min
Histogram: 16 0 0 0 0 0 0 0 0 0
FullNghs:  18747.9 ave 19857 max 17376 min
Histogram: 1 1 0 4 0 4 1 1 2 2

Total # of neighbors = 299966
Ave neighs/atom = 299.966
Neighbor list builds = 1000
Dangerous builds not checked
Setting up Verlet run ...
  Unit style    : real
  Current step  : 18000
  Time step     : 1
Per MPI rank memory allocation (min/avg/max) = 4.576 | 4.578 | 4.58 Mbytes
Step Temp E_pair E_mol TotEng Press Volume Lx Ly Lz S/CPU 
   18000    304.04007   -10457.948            0   -9552.5689    229.89376    786.52841    9.2307744    9.2307744    9.2307744            0 
   18100    308.82537   -10474.675            0   -9555.0456     11502.66    785.83573    9.2280639    9.2280639    9.2280639    91.876869 
   18200    298.70701   -10448.535            0   -9559.0366    8671.2967    785.34169    9.2261296    9.2261296    9.2261296     87.23977 
   18300    301.70155   -10462.821            0   -9564.4049     1122.733    785.27604    9.2258725    9.2258725    9.2258725    57.194889 
   18400    306.74199   -10487.407            0   -9573.9821    9773.6188    785.42015    9.2264369    9.2264369    9.2264369    79.544749 
   18500    305.03164   -10491.227            0   -9582.8953    2067.4731    785.74266    9.2276995    9.2276995    9.2276995    75.398548 
   18600    295.93346   -10475.046            0   -9593.8065    268.30247    786.09499    9.2290785    9.2290785    9.2290785    64.543319 
   18700    285.35613     -10455.4            0   -9605.6587     3947.911    786.45653    9.2304932    9.2304932    9.2304932    77.303852 
   18800     278.6057   -10445.513            0   -9615.8725   -1570.9452    786.84335    9.2320063    9.2320063    9.2320063    81.037152 
   18900    284.81371   -10470.814            0   -9622.6869    -12968.03     787.0655     9.232875     9.232875     9.232875    74.161715 
   19000    297.56386   -10514.374            0   -9628.2799   -3634.1369    786.25341    9.2296985    9.2296985    9.2296985    54.017665 
Loop time of 13.8431 on 16 procs for 1000 steps with 1000 atoms

Performance: 6.241 ns/day, 3.845 hours/ns, 72.238 timesteps/s
94.7% CPU use with 16 MPI tasks x no OpenMP threads

MPI task timing breakdown:
Section |  min time  |  avg time  |  max time  |%varavg| %total
---------------------------------------------------------------
Pair    | 1.6501     | 1.7221     | 1.7917     |   3.2 | 12.44
Neigh   | 0.59096    | 0.60798    | 0.6367     |   1.8 |  4.39
Comm    | 0.38624    | 0.46127    | 0.54425    |   7.4 |  3.33
Output  | 7.3366     | 7.57       | 11.025     |  32.4 | 54.68
Modify  | 0.020103   | 3.475      | 3.7084     |  47.9 | 25.10
Other   |            | 0.006814   |            |       |  0.05

Nlocal:    62.5 ave 69 max 58 min
Histogram: 1 4 1 1 3 4 1 0 0 1
Nghost:    1852.81 ave 1873 max 1833 min
Histogram: 1 2 2 3 0 1 1 1 2 3
Neighs:    0 ave 0 max 0 min
Histogram: 16 0 0 0 0 0 0 0 0 0
FullNghs:  18780.2 ave 20965 max 17075 min
Histogram: 1 2 2 1 3 4 2 0 0 1

Total # of neighbors = 300484
Ave neighs/atom = 300.484
Neighbor list builds = 1000
Dangerous builds not checked
Setting up Verlet run ...
  Unit style    : real
  Current step  : 19000
  Time step     : 1
Per MPI rank memory allocation (min/avg/max) = 4.576 | 4.578 | 4.58 Mbytes
Step Temp E_pair E_mol TotEng Press Volume Lx Ly Lz S/CPU 
   19000    297.56386   -10514.374            0   -9628.2799   -3634.1369    786.25341    9.2296985    9.2296985    9.2296985            0 
   19100    291.42872   -10497.303            0   -9629.4783   -16242.749    784.81657    9.2240728    9.2240728    9.2240728    87.071114 
   19200    297.65193   -10517.401            0   -9631.0442     1442.332    782.71611    9.2158364    9.2158364    9.2158364    98.228474 
   19300    304.39377    -10537.92            0   -9631.4872    -8825.396     780.1579    9.2057852    9.2057852    9.2057852    88.975959 
   19400    297.00716   -10513.058            0   -9628.6219    5748.4194    777.43574    9.1950656    9.1950656    9.1950656     48.78822 
   19500    289.12373   -10486.218            0   -9625.2566    17100.172    775.11978     9.185926     9.185926     9.185926    81.732193 
   19600    300.54731   -10516.909            0   -9621.9309    26443.123    773.71003    9.1803536    9.1803536    9.1803536    88.364943 
   19700    288.92767   -10477.121            0   -9616.7435    10919.056    773.77756    9.1806207    9.1806207    9.1806207    76.230111 
   19800    299.14869   -10504.509            0   -9613.6957    12310.288    774.88407    9.1849947    9.1849947    9.1849947    79.548086 
   19900    305.08771   -10518.754            0   -9610.2548   -1510.9419     776.5096    9.1914129    9.1914129    9.1914129    79.505598 
   20000     304.5966   -10514.573            0   -9607.5361   -12696.916    778.24813    9.1982673    9.1982673    9.1982673    82.502301 
Loop time of 12.7341 on 16 procs for 1000 steps with 1000 atoms

Performance: 6.785 ns/day, 3.537 hours/ns, 78.529 timesteps/s
94.8% CPU use with 16 MPI tasks x no OpenMP threads

MPI task timing breakdown:
Section |  min time  |  avg time  |  max time  |%varavg| %total
---------------------------------------------------------------
Pair    | 1.6923     | 1.7604     | 1.8914     |   3.7 | 13.82
Neigh   | 0.59506    | 0.61054    | 0.63621    |   1.8 |  4.79
Comm    | 0.31224    | 0.46146    | 0.54456    |   8.6 |  3.62
Output  | 6.5019     | 6.7158     | 9.8744     |  31.5 | 52.74
Modify  | 0.020225   | 3.179      | 3.3931     |  45.7 | 24.96
Other   |            | 0.006896   |            |       |  0.05

Nlocal:    62.5 ave 69 max 56 min
Histogram: 1 0 1 5 1 1 5 0 1 1
Nghost:    1871.81 ave 1886 max 1860 min
Histogram: 2 2 1 2 2 1 4 0 0 2
Neighs:    0 ave 0 max 0 min
Histogram: 16 0 0 0 0 0 0 0 0 0
FullNghs:  18963.1 ave 20912 max 16985 min
Histogram: 1 0 2 4 1 1 5 0 0 2

Total # of neighbors = 303410
Ave neighs/atom = 303.41
Neighbor list builds = 1000
Dangerous builds not checked
Setting up Verlet run ...
  Unit style    : real
  Current step  : 20000
  Time step     : 1
Per MPI rank memory allocation (min/avg/max) = 4.576 | 4.578 | 4.58 Mbytes
Step Temp E_pair E_mol TotEng Press Volume Lx Ly Lz S/CPU 
   20000     304.5966   -10514.573            0   -9607.5361   -12696.916    778.24813    9.1982673    9.1982673    9.1982673            0 
   20100    305.85662   -10514.533            0   -9603.7438    5432.2455    779.84451    9.2045524    9.2045524    9.2045524    63.225339 
   20200    295.11173   -10479.429            0    -9600.637    111.58771    781.56508    9.2113167    9.2113167    9.2113167    72.829333 
   20300    297.96238    -10483.71            0   -9596.4287   -18038.512    783.48969    9.2188715    9.2188715    9.2188715    78.375223 
   20400    306.79206   -10508.294            0   -9594.7195    -7988.615     785.3216    9.2260509    9.2260509    9.2260509    97.248307 
   20500    294.33343   -10467.426            0   -9590.9514   -11004.917    786.90258     9.232238     9.232238     9.232238     60.60175 
   20600    301.38171   -10486.021            0   -9588.5582    -24380.56    787.81301    9.2357971    9.2357971    9.2357971    76.151262 
   20700    300.97273   -10483.119            0    -9586.874   -6681.8808     787.8909    9.2361015    9.2361015    9.2361015    92.631509 
   20800    296.26949   -10465.507            0   -9583.2673    1667.0959    787.60974    9.2350027    9.2350027    9.2350027    80.826497 
   20900    304.03577   -10485.416            0   -9580.0498   -14752.767    787.20756    9.2334305    9.2334305    9.2334305    80.448265 
   21000    302.61449   -10475.111            0   -9573.9769    2024.6994    786.22921    9.2296038    9.2296038    9.2296038    86.509534 
Loop time of 12.938 on 16 procs for 1000 steps with 1000 atoms

Performance: 6.678 ns/day, 3.594 hours/ns, 77.292 timesteps/s
94.8% CPU use with 16 MPI tasks x no OpenMP threads

MPI task timing breakdown:
Section |  min time  |  avg time  |  max time  |%varavg| %total
---------------------------------------------------------------
Pair    | 1.6187     | 1.7268     | 1.8151     |   4.6 | 13.35
Neigh   | 0.57823    | 0.60751    | 0.64649    |   2.4 |  4.70
Comm    | 0.36547    | 0.47338    | 0.60712    |  11.1 |  3.66
Output  | 6.7864     | 6.9968     | 10.103     |  30.3 | 54.08
Modify  | 0.020383   | 3.1266     | 3.3372     |  45.4 | 24.17
Other   |            | 0.006858   |            |       |  0.05

Nlocal:    62.5 ave 65 max 58 min
Histogram: 1 0 2 0 2 2 0 3 3 3
Nghost:    1855.56 ave 1870 max 1845 min
Histogram: 3 1 3 1 1 1 3 1 1 1
Neighs:    0 ave 0 max 0 min
Histogram: 16 0 0 0 0 0 0 0 0 0
FullNghs:  18762.2 ave 19543 max 17397 min
Histogram: 1 1 0 2 1 1 1 4 2 3

Total # of neighbors = 300196
Ave neighs/atom = 300.196
Neighbor list builds = 1000
Dangerous builds not checked
Setting up Verlet run ...
  Unit style    : real
  Current step  : 21000
  Time step     : 1
Per MPI rank memory allocation (min/avg/max) = 4.576 | 4.578 | 4.58 Mbytes
Step Temp E_pair E_mol TotEng Press Volume Lx Ly Lz S/CPU 
   21000    302.61449   -10475.111            0   -9573.9769    2024.6994    786.22921    9.2296038    9.2296038    9.2296038            0 
   21100    311.72238   -10496.075            0   -9567.8193    6586.6249    785.13137    9.2253059    9.2253059    9.2253059    111.91538 
   21200    307.19104   -10474.878            0    -9560.116    3485.4436     784.1761    9.2215629    9.2215629    9.2215629    79.445915 
   21300    302.29766     -10449.4            0   -9549.2089    1986.9204    783.34894    9.2183194    9.2183194    9.2183194    76.409838 
   21400    301.95109   -10436.906            0   -9537.7476    1225.2003    782.83309    9.2162955    9.2162955    9.2162955    90.205155 
   21500    306.59222   -10441.079            0   -9528.0994    854.55752     782.6098    9.2154192    9.2154192    9.2154192    87.915685 
   21600     305.3077   -10428.685            0    -9519.531    5614.9448    782.34778    9.2143906    9.2143906    9.2143906    73.029503 
   21700    319.30084   -10465.078            0   -9514.2544    23941.827    782.38992     9.214556     9.214556     9.214556    81.914256 
   21800    306.94437   -10424.927            0   -9510.8989    15913.992    783.34396    9.2182999    9.2182999    9.2182999    103.78521 
   21900    317.04052   -10455.996            0   -9511.9036     3225.345    784.81405    9.2240629    9.2240629    9.2240629    76.451536 
   22000    317.56979   -10461.352            0   -9515.6834   -1532.7823    786.58515    9.2309964    9.2309964    9.2309964    72.420715 
Loop time of 11.9495 on 16 procs for 1000 steps with 1000 atoms

Performance: 7.230 ns/day, 3.319 hours/ns, 83.685 timesteps/s
94.9% CPU use with 16 MPI tasks x no OpenMP threads

MPI task timing breakdown:
Section |  min time  |  avg time  |  max time  |%varavg| %total
---------------------------------------------------------------
Pair    | 1.6651     | 1.7342     | 1.7802     |   2.7 | 14.51
Neigh   | 0.59136    | 0.6079     | 0.63546    |   1.3 |  5.09
Comm    | 0.39652    | 0.4511     | 0.53638    |   6.1 |  3.78
Output  | 5.8344     | 6.0434     | 9.1292     |  32.4 | 50.57
Modify  | 0.020109   | 3.106      | 3.3151     |  45.2 | 25.99
Other   |            | 0.006819   |            |       |  0.06

Nlocal:    62.5 ave 66 max 57 min
Histogram: 1 1 0 2 1 2 0 6 2 1
Nghost:    1851.12 ave 1861 max 1844 min
Histogram: 3 3 1 1 1 1 2 2 1 1
Neighs:    0 ave 0 max 0 min
Histogram: 16 0 0 0 0 0 0 0 0 0
FullNghs:  18755.4 ave 19779 max 17128 min
Histogram: 2 0 0 2 1 2 0 3 5 1

Total # of neighbors = 300086
Ave neighs/atom = 300.086
Neighbor list builds = 1000
Dangerous builds not checked
Setting up Verlet run ...
  Unit style    : real
  Current step  : 22000
  Time step     : 1
Per MPI rank memory allocation (min/avg/max) = 4.576 | 4.578 | 4.58 Mbytes
Step Temp E_pair E_mol TotEng Press Volume Lx Ly Lz S/CPU 
   22000    317.56979   -10461.352            0   -9515.6834   -1532.7823    786.58515    9.2309964    9.2309964    9.2309964            0 
   22100    308.88614   -10441.608            0   -9521.7981    957.06579    788.42999    9.2382075    9.2382075    9.2382075    72.902754 
   22200    310.73262   -10457.386            0   -9532.0776   -11154.266     790.4349    9.2460315    9.2460315    9.2460315    83.695151 
   22300    302.11713   -10443.388            0   -9543.7348   -3440.4406    792.11986    9.2525967    9.2525967    9.2525967    97.770481 
   22400    301.86964   -10456.837            0   -9557.9208   -14776.006    793.44434    9.2577508    9.2577508    9.2577508    80.638621 
   22500    308.62219   -10489.441            0   -9570.4171    -8903.064    794.01293    9.2599617    9.2599617    9.2599617    70.001504 
   22600    290.56573   -10445.664            0   -9580.4088    2389.0292    794.03878    9.2600622    9.2600622    9.2600622    73.691155 
   22700    313.23676   -10522.229            0   -9589.4634   -7043.9608    793.49854    9.2579617    9.2579617    9.2579617    79.709035 
   22800    303.26441   -10497.696            0   -9594.6267   -3082.2475    792.89813     9.255626     9.255626     9.255626    63.233708 
   22900    306.95464   -10515.256            0    -9601.197   -9225.9607    792.12873    9.2526312    9.2526312    9.2526312    85.935352 
   23000    298.23148   -10493.349            0   -9605.2662   -3338.4417    790.77151    9.2473438    9.2473438    9.2473438     83.93018 
Loop time of 12.8061 on 16 procs for 1000 steps with 1000 atoms

Performance: 6.747 ns/day, 3.557 hours/ns, 78.088 timesteps/s
94.8% CPU use with 16 MPI tasks x no OpenMP threads

MPI task timing breakdown:
Section |  min time  |  avg time  |  max time  |%varavg| %total
---------------------------------------------------------------
Pair    | 1.6208     | 1.6936     | 1.7855     |   3.2 | 13.22
Neigh   | 0.58577    | 0.60551    | 0.63059    |   1.7 |  4.73
Comm    | 0.37259    | 0.47673    | 0.56784    |   7.4 |  3.72
Output  | 6.3994     | 6.6276     | 10.003     |  33.9 | 51.75
Modify  | 0.020213   | 3.3959     | 3.6242     |  47.3 | 26.52
Other   |            | 0.006782   |            |       |  0.05

Nlocal:    62.5 ave 66 max 59 min
Histogram: 1 2 2 0 1 6 0 2 1 1
Nghost:    1848.81 ave 1865 max 1832 min
Histogram: 3 2 1 2 0 2 0 0 2 4
Neighs:    0 ave 0 max 0 min
Histogram: 16 0 0 0 0 0 0 0 0 0
FullNghs:  18665.4 ave 19791 max 17699 min
Histogram: 3 0 3 0 1 5 1 1 1 1

Total # of neighbors = 298646
Ave neighs/atom = 298.646
Neighbor list builds = 1000
Dangerous builds not checked
Setting up Verlet run ...
  Unit style    : real
  Current step  : 23000
  Time step     : 1
Per MPI rank memory allocation (min/avg/max) = 4.576 | 4.578 | 4.58 Mbytes
Step Temp E_pair E_mol TotEng Press Volume Lx Ly Lz S/CPU 
   23000    298.23148   -10493.349            0   -9605.2662   -3338.4417    790.77151    9.2473438    9.2473438    9.2473438            0 
   23100    299.68862     -10501.9            0   -9609.4789   -6828.7826    789.22804    9.2413234    9.2413234    9.2413234    91.134749 
   23200    293.37395   -10485.619            0   -9612.0017    9323.5133     787.4966    9.2345605    9.2345605    9.2345605    64.022837 
   23300    292.31878   -10484.615            0   -9614.1394   -4818.0946    786.22192    9.2295753    9.2295753    9.2295753     93.31948 
   23400    296.84928   -10499.206            0   -9615.2397    4629.7788    785.05056    9.2249894    9.2249894    9.2249894    89.240647 
   23500    298.39052   -10504.774            0   -9616.2177   -9902.8984     784.0018    9.2208797    9.2208797    9.2208797     69.33925 
   23600    290.62376    -10481.95            0   -9616.5221    3174.2972    783.07686     9.217252     9.217252     9.217252    74.705105 
   23700    304.14211   -10522.795            0   -9617.1118   -7446.7407    782.21169    9.2138563    9.2138563    9.2138563     89.64906 
   23800    291.89819   -10484.249            0   -9615.0263     11252.04    781.26824    9.2101504    9.2101504    9.2101504    96.601777 
   23900    301.58709   -10512.158            0   -9614.0834    12862.802    780.66712    9.2077877    9.2077877    9.2077877    60.893843 
   24000    292.14816   -10481.105            0   -9611.1377    21971.944    780.69963    9.2079155    9.2079155    9.2079155    85.735388 
Loop time of 12.5914 on 16 procs for 1000 steps with 1000 atoms

Performance: 6.862 ns/day, 3.498 hours/ns, 79.419 timesteps/s
94.8% CPU use with 16 MPI tasks x no OpenMP threads

MPI task timing breakdown:
Section |  min time  |  avg time  |  max time  |%varavg| %total
---------------------------------------------------------------
Pair    | 1.6603     | 1.7287     | 1.7781     |   2.1 | 13.73
Neigh   | 0.59711    | 0.60767    | 0.63737    |   1.4 |  4.83
Comm    | 0.3866     | 0.45693    | 0.51752    |   4.8 |  3.63
Output  | 6.5525     | 6.7567     | 9.7708     |  29.9 | 53.66
Modify  | 0.020109   | 3.0346     | 3.239      |  44.7 | 24.10
Other   |            | 0.006859   |            |       |  0.05

Nlocal:    62.5 ave 68 max 57 min
Histogram: 1 1 0 4 3 3 1 1 0 2
Nghost:    1855.31 ave 1866 max 1845 min
Histogram: 3 0 0 2 6 0 1 0 2 2
Neighs:    0 ave 0 max 0 min
Histogram: 16 0 0 0 0 0 0 0 0 0
FullNghs:  18915.1 ave 20765 max 17255 min
Histogram: 1 1 0 4 6 0 2 0 0 2

Total # of neighbors = 302642
Ave neighs/atom = 302.642
Neighbor list builds = 1000
Dangerous builds not checked
Setting up Verlet run ...
  Unit style    : real
  Current step  : 24000
  Time step     : 1
Per MPI rank memory allocation (min/avg/max) = 4.576 | 4.578 | 4.58 Mbytes
Step Temp E_pair E_mol TotEng Press Volume Lx Ly Lz S/CPU 
   24000    292.14816   -10481.105            0   -9611.1377    21971.944    780.69963    9.2079155    9.2079155    9.2079155            0 
   24100    298.47604   -10497.236            0   -9608.4254    659.73183    781.54123     9.211223     9.211223     9.211223    97.454257 
   24200     296.1006     -10484.1            0   -9602.3629    3644.5932    782.52894    9.2151018    9.2151018    9.2151018    80.488318 
   24300    298.38743   -10483.489            0   -9594.9419   -5139.2006    783.67869    9.2196127    9.2196127    9.2196127    68.480778 
   24400    300.49861    -10479.78            0    -9584.946   -20429.378    784.76077    9.2238542    9.2238542    9.2238542    89.375299 
   24500    312.48953   -10503.254            0   -9572.7135    4315.1206    785.50019    9.2267502    9.2267502    9.2267502    94.855101 
   24600      308.519   -10478.819            0   -9560.1025   -1457.9099    786.29711    9.2298695    9.2298695    9.2298695    68.752761 
   24700    292.36244   -10418.216            0   -9547.6104   -2265.0284    787.00882    9.2326534    9.2326534    9.2326534    72.913194 
   24800    316.24252   -10482.487            0   -9540.7705   -11451.591    787.34478     9.233967     9.233967     9.233967    79.706462 
   24900    307.12575   -10447.836            0   -9533.2679   -1081.6571    787.10609    9.2330338    9.2330338    9.2330338    92.866251 
   25000    303.35807   -10434.003            0   -9530.6547   -4644.4823    786.51464    9.2307206    9.2307206    9.2307206    57.382372 
Loop time of 12.802 on 16 procs for 1000 steps with 1000 atoms

Performance: 6.749 ns/day, 3.556 hours/ns, 78.113 timesteps/s
94.8% CPU use with 16 MPI tasks x no OpenMP threads

MPI task timing breakdown:
Section |  min time  |  avg time  |  max time  |%varavg| %total
---------------------------------------------------------------
Pair    | 1.6617     | 1.7292     | 1.7826     |   2.7 | 13.51
Neigh   | 0.59236    | 0.60798    | 0.63114    |   1.4 |  4.75
Comm    | 0.42361    | 0.48246    | 0.56436    |   5.8 |  3.77
Output  | 6.4746     | 6.6954     | 9.9549     |  32.5 | 52.30
Modify  | 0.020232   | 3.2802     | 3.5011     |  46.5 | 25.62
Other   |            | 0.006843   |            |       |  0.05

Nlocal:    62.5 ave 66 max 58 min
Histogram: 1 3 0 1 0 2 1 4 3 1
Nghost:    1847.88 ave 1860 max 1839 min
Histogram: 2 3 0 4 2 0 2 1 1 1
Neighs:    0 ave 0 max 0 min
Histogram: 16 0 0 0 0 0 0 0 0 0
FullNghs:  18771.2 ave 20013 max 17375 min
Histogram: 1 2 1 1 2 1 3 2 2 1

Total # of neighbors = 300340
Ave neighs/atom = 300.34
Neighbor list builds = 1000
Dangerous builds not checked
Setting up Verlet run ...
  Unit style    : real
  Current step  : 25000
  Time step     : 1
Per MPI rank memory allocation (min/avg/max) = 4.576 | 4.578 | 4.58 Mbytes
Step Temp E_pair E_mol TotEng Press Volume Lx Ly Lz S/CPU 
   25000    303.35807   -10434.003            0   -9530.6547   -4644.4823    786.51464    9.2307206    9.2307206    9.2307206            0 
   25100    307.01251   -10443.481            0   -9529.2502    1691.6906    785.77855      9.22784      9.22784      9.22784    80.564921 
   25200    301.46103   -10427.719            0   -9530.0194   -3690.3951    785.31293     9.226017     9.226017     9.226017    88.506304 
   25300     310.6211   -10457.642            0   -9532.6652    6596.3957    784.94065    9.2245589    9.2245589    9.2245589    72.376643 
   25400    308.58729   -10456.266            0   -9537.3453    426.89162    784.92978    9.2245163    9.2245163    9.2245163     73.24914 
   25500     297.8061   -10429.214            0   -9542.3987   -4175.2203    785.09826    9.2251762    9.2251762    9.2251762    92.734418 
   25600     297.8476    -10436.79            0   -9549.8505   -6249.6963    785.10884    9.2252177    9.2252177    9.2252177     79.86798 
   25700    316.78445   -10504.537            0    -9561.207     8269.203    785.33474    9.2261024    9.2261024    9.2261024    61.122132 
   25800    304.22787   -10475.213            0   -9569.2745    1586.3303    786.13096    9.2292193    9.2292193    9.2292193    74.011942 
   25900    296.25213   -10459.346            0   -9577.1576   -25815.057    786.77388    9.2317346    9.2317346    9.2317346    99.655476 
   26000     300.5109   -10479.404            0   -9584.5344   -8820.7194    786.39853    9.2302663    9.2302663    9.2302663    100.41992 
Loop time of 12.4349 on 16 procs for 1000 steps with 1000 atoms

Performance: 6.948 ns/day, 3.454 hours/ns, 80.419 timesteps/s
94.8% CPU use with 16 MPI tasks x no OpenMP threads

MPI task timing breakdown:
Section |  min time  |  avg time  |  max time  |%varavg| %total
---------------------------------------------------------------
Pair    | 1.6834     | 1.7261     | 1.7614     |   2.0 | 13.88
Neigh   | 0.59148    | 0.60727    | 0.6377     |   1.7 |  4.88
Comm    | 0.39738    | 0.44921    | 0.50781    |   5.4 |  3.61
Output  | 6.3145     | 6.5247     | 9.625      |  31.3 | 52.47
Modify  | 0.020005   | 3.1207     | 3.3312     |  45.3 | 25.10
Other   |            | 0.006846   |            |       |  0.06

Nlocal:    62.5 ave 66 max 59 min
Histogram: 2 1 2 0 3 3 0 1 3 1
Nghost:    1844.81 ave 1861 max 1826 min
Histogram: 2 0 1 2 4 0 1 2 1 3
Neighs:    0 ave 0 max 0 min
Histogram: 16 0 0 0 0 0 0 0 0 0
FullNghs:  18775.8 ave 20076 max 17698 min
Histogram: 3 0 2 2 3 1 1 0 3 1

Total # of neighbors = 300412
Ave neighs/atom = 300.412
Neighbor list builds = 1000
Dangerous builds not checked
Setting up Verlet run ...
  Unit style    : real
  Current step  : 26000
  Time step     : 1
Per MPI rank memory allocation (min/avg/max) = 4.576 | 4.578 | 4.58 Mbytes
Step Temp E_pair E_mol TotEng Press Volume Lx Ly Lz S/CPU 
   26000     300.5109   -10479.404            0   -9584.5344   -8820.7194    786.39853    9.2302663    9.2302663    9.2302663            0 
   26100    298.03855     -10475.9            0   -9588.3918    5493.8101    785.82615    9.2280264    9.2280264    9.2280264    60.062832 
   26200    284.42481   -10437.562            0   -9590.5932   -1550.4069    785.32768    9.2260747    9.2260747    9.2260747    76.408806 
   26300    299.00102   -10482.645            0   -9592.2713   -10291.356    784.55446    9.2230458    9.2230458    9.2230458    95.342117 
   26400    292.86195   -10462.774            0   -9590.6807   -4523.7592    783.47221     9.218803     9.218803     9.218803    61.972731 
   26500    299.08189   -10480.899            0   -9590.2839   -9334.7478    782.06556    9.2132825    9.2132825    9.2132825    85.533733 
   26600    304.25293   -10495.895            0   -9589.8813   -5873.1736    780.23172    9.2060755    9.2060755    9.2060755    68.667867 
   26700    315.18538   -10529.365            0   -9590.7972    11796.892    778.36134    9.1987134    9.1987134    9.1987134     73.05913 
   26800    298.48897   -10478.645            0   -9589.7957   -282.17689    776.78796    9.1925111    9.1925111    9.1925111    69.475358 
   26900    300.76418    -10486.14            0   -9590.5161    16813.916     775.3303    9.1867575    9.1867575    9.1867575    88.720304 
   27000    301.40545   -10489.811            0   -9592.2766    3572.0152    774.15994    9.1821327    9.1821327    9.1821327    84.642154 
Loop time of 13.3783 on 16 procs for 1000 steps with 1000 atoms

Performance: 6.458 ns/day, 3.716 hours/ns, 74.748 timesteps/s
94.8% CPU use with 16 MPI tasks x no OpenMP threads

MPI task timing breakdown:
Section |  min time  |  avg time  |  max time  |%varavg| %total
---------------------------------------------------------------
Pair    | 1.6792     | 1.7468     | 1.835      |   3.4 | 13.06
Neigh   | 0.58791    | 0.60943    | 0.62629    |   1.5 |  4.56
Comm    | 0.36077    | 0.46564    | 0.55541    |   7.8 |  3.48
Output  | 6.6853     | 6.9287     | 10.529     |  35.3 | 51.79
Modify  | 0.020027   | 3.6208     | 3.8644     |  48.9 | 27.06
Other   |            | 0.006846   |            |       |  0.05

Nlocal:    62.5 ave 68 max 58 min
Histogram: 1 2 2 2 2 2 1 1 0 3
Nghost:    1879 ave 1908 max 1860 min
Histogram: 1 3 4 1 2 1 1 2 0 1
Neighs:    0 ave 0 max 0 min
Histogram: 16 0 0 0 0 0 0 0 0 0
FullNghs:  19042.9 ave 21069 max 17362 min
Histogram: 1 2 2 3 1 3 1 0 1 2

Total # of neighbors = 304686
Ave neighs/atom = 304.686
Neighbor list builds = 1000
Dangerous builds not checked
Setting up Verlet run ...
  Unit style    : real
  Current step  : 27000
  Time step     : 1
Per MPI rank memory allocation (min/avg/max) = 4.576 | 4.578 | 4.58 Mbytes
Step Temp E_pair E_mol TotEng Press Volume Lx Ly Lz S/CPU 
   27000    301.40545   -10489.811            0   -9592.2766    3572.0152    774.15994    9.1821327    9.1821327    9.1821327            0 
   27100    313.60167   -10527.896            0    -9594.044    4033.4077    773.47534    9.1794253    9.1794253    9.1794253    66.074907 
   27200    293.83709    -10471.63            0   -9596.6334    16239.986      773.527    9.1796296    9.1796296    9.1796296    75.280664 
   27300    307.09976   -10515.916            0   -9601.4252     2147.004     774.3512    9.1828888    9.1828888    9.1828888    86.764018 
   27400     300.0757   -10501.053            0   -9607.4791    8038.8086    775.56559    9.1876867    9.1876867    9.1876867    71.887139 
   27500    299.71366   -10507.395            0   -9614.8994    185.13896     777.5562    9.1955405    9.1955405    9.1955405    69.463905 
   27600    299.34934   -10512.803            0   -9621.3915   -3826.9639    779.57482    9.2034912    9.2034912    9.2034912    91.650913 
   27700    295.35137   -10508.016            0   -9628.5099   -6633.2333    781.19184    9.2098502    9.2098502    9.2098502    97.578397 
   27800    304.75803   -10545.038            0   -9637.5207   -18376.847    782.09227    9.2133874    9.2133874    9.2133874    57.156824 
   27900    294.57817   -10521.475            0   -9644.2716   -14620.082    782.11846    9.2134902    9.2134902    9.2134902    82.768072 
   28000    294.74319   -10527.719            0   -9650.0243   -14418.579    781.46511     9.210924     9.210924     9.210924     68.10956 
Loop time of 13.3669 on 16 procs for 1000 steps with 1000 atoms

Performance: 6.464 ns/day, 3.713 hours/ns, 74.811 timesteps/s
[...]
  598700    294.67785   -11457.273            0   -10579.773    17509.742      730.519    9.0062467    9.0062467    9.0062467    80.612399 
  598800    295.08151    -11459.71            0   -10581.007    30776.444    730.97689     9.008128     9.008128     9.008128    74.117025 
  598900    302.25621   -11484.129            0   -10584.062    13854.071    733.01298    9.0164841    9.0164841    9.0164841    79.901937 
  599000    298.07244   -11473.697            0   -10586.088     6730.837    736.08628    9.0290676    9.0290676    9.0290676    65.690649 
  599100     298.4938   -11476.495            0   -10587.632    -19311.38    739.19787    9.0417724    9.0417724    9.0417724    43.153318 
  599200    305.55592   -11499.716            0   -10589.823   -22029.842    741.25905    9.0501686    9.0501686    9.0501686    67.207422 
  599300    301.68053   -11489.075            0   -10590.722   -28104.364    741.95136    9.0529852    9.0529852    9.0529852    52.781027 
  599400    304.12712   -11498.961            0   -10593.322   -10911.072    741.18677    9.0498744    9.0498744    9.0498744    70.123958 
  599500    298.38054   -11485.067            0    -10596.54   -17558.713    739.35979    9.0424325    9.0424325    9.0424325    67.556631 
  599600    299.73546   -11493.662            0   -10601.101    418.79009    736.94809      9.03259      9.03259      9.03259    54.969745 
  599700    292.95029    -11481.21            0   -10608.854    13705.864    734.51837    9.0226523    9.0226523    9.0226523    77.088948 
  599800     303.5563   -11521.537            0   -10617.598     12178.97    732.78555    9.0155515    9.0155515    9.0155515    57.714823 
  599900    298.29472   -11516.802            0   -10628.531    15845.298    732.02336    9.0124246    9.0124246    9.0124246    69.978867 
  600000    302.67525   -11542.029            0   -10640.714    21184.625    732.44605     9.014159     9.014159     9.014159    71.383545 
  600100    295.44528   -11531.038            0   -10651.253     7624.526     733.7803    9.0196292    9.0196292    9.0196292     48.95284 
  600200    291.23302   -11527.453            0    -10660.21   -1418.9507    735.48585     9.026612     9.026612     9.026612    66.394985 
  600300    294.05098   -11543.254            0    -10667.62    -2136.403    737.06632    9.0330731    9.0330731    9.0330731    52.491017 
  600400    288.47151   -11530.963            0   -10671.944   -18861.207    738.15943    9.0375364    9.0375364    9.0375364    72.033304 
  600500    284.64953   -11520.199            0   -10672.561   -11580.651    738.32054    9.0381938    9.0381938    9.0381938    57.253749 
  600600    284.49647   -11518.936            0   -10671.754   -5807.3106    737.63272    9.0353863    9.0353863    9.0353863     57.41017 
  600700    293.11375   -11542.948            0   -10670.106   -1484.8877    736.24983    9.0297363    9.0297363    9.0297363    74.754891 
  600800    292.28263   -11533.447            0    -10663.08    5891.5645    734.52404    9.0226755    9.0226755    9.0226755    60.822997 
  600900    285.92741   -11504.329            0   -10652.886    12004.675    732.94552    9.0162075    9.0162075    9.0162075    79.332362 
  601000    285.94345   -11494.139            0   -10642.648    10212.577    731.96862       9.0122       9.0122       9.0122    55.724571 
  601100    301.05732   -11528.727            0    -10632.23    23543.483    731.89433    9.0118951    9.0118951    9.0118951     66.76812 
  601200    299.75286   -11513.093            0    -10620.48    16851.237    732.87064    9.0159005    9.0159005    9.0159005    62.486495 
  601300    293.74653   -11486.036            0   -10611.309    13613.625    734.71411    9.0234537    9.0234537    9.0234537    58.674465 
  601400    295.92821   -11485.757            0   -10604.533    1213.0072    736.96367    9.0326537    9.0326537    9.0326537     69.38459 
  601500    298.68493   -11487.292            0   -10597.859   -6916.8052    738.88406    9.0404927    9.0404927    9.0404927    67.817184 
  601600    297.55815    -11477.31            0   -10591.233   -21157.253    739.99684    9.0450288    9.0450288    9.0450288     67.79336 
  601700    299.11531   -11478.046            0   -10587.332   -14706.814    739.98397    9.0449764    9.0449764    9.0449764    70.922869 
  601800    296.42986   -11465.289            0   -10582.571   -14181.643    738.88173    9.0404832    9.0404832    9.0404832    57.542398 
  601900    309.14492   -11501.107            0   -10580.526   -6229.1151    737.17632    9.0335224    9.0335224    9.0335224    74.691103 
  602000    310.36686   -11502.089            0   -10577.869   -4388.4203    735.32641    9.0259596    9.0259596    9.0259596    63.232112 
  602100    299.43221   -11465.258            0     -10573.6    10226.347    733.79885    9.0197052    9.0197052    9.0197052    66.098422 
  602200    300.38875   -11466.785            0   -10572.279    15439.924    732.88152     9.015945     9.015945     9.015945    89.668768 
  602300    293.47719   -11444.718            0   -10570.793     7550.645    732.78881    9.0155649    9.0155649    9.0155649    72.501874 
  602400     303.9279   -11475.489            0   -10570.444    7815.6201    733.58314    9.0188213    9.0188213    9.0188213    56.981396 
  602500    305.38778   -11482.232            0    -10572.84    12122.139    735.06286    9.0248812    9.0248812    9.0248812    81.837658 
  602600    294.82738   -11450.984            0   -10573.039   -1302.3301    737.12769    9.0333238    9.0333238    9.0333238    49.151386 
  602700    304.32702   -11481.888            0   -10575.654   -12218.134    739.10874    9.0414089    9.0414089    9.0414089    80.758917 
  602800    306.61459    -11492.25            0   -10579.204   -24435.431    740.40598    9.0466955    9.0466955    9.0466955    77.777006 
  602900    292.20662   -11452.806            0   -10582.664   -5198.3421    740.57922     9.047401     9.047401     9.047401    71.320338 
  603000    294.77166   -11467.503            0   -10589.723   -2693.0072    739.56455    9.0432672    9.0432672    9.0432672    76.224436 
  603100    295.81093   -11480.824            0    -10599.95   -5867.8625    737.65267    9.0354677    9.0354677    9.0354677    59.813744 
  603200    301.69118   -11509.334            0   -10610.949    9891.1738    735.39405    9.0262364    9.0262364    9.0262364     63.28827 
  603300    302.42112   -11525.077            0   -10624.518    18573.951    733.43746    9.0182242    9.0182242    9.0182242    74.708719 
  603400    302.93281   -11539.011            0   -10636.929    12346.803    732.08641    9.0126834    9.0126834    9.0126834    66.664429 
  603500    298.15485   -11535.776            0   -10647.922    14581.931    731.64921    9.0108889    9.0108889    9.0108889    76.421668 
  603600    283.43063   -11499.269            0   -10655.261    16009.614    732.27451    9.0134552    9.0134552    9.0134552    56.632094 
  603700    294.67867   -11539.887            0   -10662.384    9512.8114    733.73593    9.0194474    9.0194474    9.0194474    85.273982 
  603800    286.58136   -11518.525            0   -10665.135   -9121.8341    735.64332    9.0272562    9.0272562    9.0272562    90.747135 
  603900    295.75845   -11549.004            0   -10668.286   -12554.631    737.36814    9.0343059    9.0343059    9.0343059    50.643374 
  604000    292.45279   -11537.926            0   -10667.051   -17252.817    738.47637    9.0388297    9.0388297    9.0388297    71.668438 
  604100     286.8334   -11518.121            0    -10663.98   -19888.423    738.57765    9.0392428    9.0392428    9.0392428    53.392342 
  604200    292.69273   -11531.071            0   -10659.482   -20823.001    737.61739    9.0353237    9.0353237    9.0353237    53.184642 
  604300    279.90081   -11486.053            0   -10652.556   -7124.5457    735.68406    9.0274228    9.0274228    9.0274228    54.541617 
  604400     289.0793   -11505.444            0   -10644.616    3827.0692    733.43616    9.0182189    9.0182189    9.0182189     57.17133 
  604500    296.15065   -11517.786            0     -10635.9    14301.132    731.72235    9.0111892    9.0111892    9.0111892    76.487528 
  604600    299.12261   -11517.993            0   -10627.257    20710.512    730.77997     9.007319     9.007319     9.007319    51.308164 
  604700     294.1693   -11494.793            0   -10618.807    16571.029    731.01719    9.0082935    9.0082935    9.0082935    72.736227 
  604800     297.7538     -11498.2            0    -10611.54    14873.453    732.53973    9.0145433    9.0145433    9.0145433    73.197074 
  604900    293.81991   -11480.159            0   -10605.213   -848.55502    735.01128    9.0246701    9.0246701    9.0246701    52.320867 
  605000    298.68944   -11490.862            0   -10601.416   -5910.0215    737.64223    9.0354251    9.0354251    9.0354251    66.466316 
  605100    311.97456   -11527.625            0   -10598.618   -26145.209    739.77266    9.0441153    9.0441153    9.0441153    52.150665 
  605200     300.8303   -11492.583            0   -10596.761   -18670.061    740.65205    9.0476976    9.0476976    9.0476976    64.943332 
  605300      306.084    -11506.39            0   -10594.924   -17453.766    740.25259    9.0460707    9.0460707    9.0460707    63.623347 
  605400    299.17733   -11485.319            0    -10594.42   -17979.512    738.91924    9.0406362    9.0406362    9.0406362    57.184354 
  605500    293.11924   -11465.945            0   -10593.085    2557.2215    736.91943    9.0324729    9.0324729    9.0324729    68.613004 
  605600    302.35363   -11493.109            0   -10592.752     7018.223    734.95981    9.0244594    9.0244594    9.0244594    56.335941 
  605700    303.05445   -11493.853            0   -10591.408    8610.7238    733.63902    9.0190503    9.0190503    9.0190503    64.751267 
  605800    305.02284   -11499.743            0   -10591.437     22427.75    733.21806    9.0173249    9.0173249    9.0173249    69.116785 
  605900    301.95944   -11488.511            0   -10589.328    9755.3751    733.80201    9.0197181    9.0197181    9.0197181    63.166883 
  606000    295.26248   -11469.329            0   -10590.087    1998.4982    735.18446    9.0253788    9.0253788    9.0253788    65.014721 
  606100    293.44685   -11464.629            0   -10590.795    1549.1653    737.04873    9.0330012    9.0330012    9.0330012    58.984892 
  606200     299.3161   -11482.394            0   -10591.082   -5956.6082      738.876    9.0404598    9.0404598    9.0404598    61.128542 
  606300    291.36822    -11458.38            0   -10590.735   -18993.559    740.04481    9.0452243    9.0452243    9.0452243    63.175214 
  606400    302.37347   -11492.859            0   -10592.443   -17652.273    740.30869    9.0462992    9.0462992    9.0462992    57.460013 
  606500    309.82434   -11514.038            0   -10591.434    -15292.27    739.60309    9.0434242    9.0434242    9.0434242    76.030662 
  606600    290.02525   -11453.166            0    -10589.52   -8022.1377    738.29322    9.0380823    9.0380823    9.0380823    66.337483 
  606700     317.4518   -11535.821            0   -10590.504    -1832.955    736.71493    9.0316373    9.0316373    9.0316373    68.281222 
  606800    295.62302   -11468.272            0   -10587.957    6930.8506     735.1463    9.0252227    9.0252227    9.0252227    68.818976 
  606900    296.14645   -11468.735            0   -10586.862    18903.636    733.89947    9.0201174    9.0201174    9.0201174    65.572455 
  607000    303.24652   -11489.893            0   -10586.876     17270.59    733.33627    9.0178095    9.0178095    9.0178095    86.368083 
  607100     296.8072   -11471.041            0     -10587.2    15340.907    733.68397    9.0192345    9.0192345    9.0192345    61.643585 
  607200    297.04506    -11472.78            0   -10588.231     3374.193    735.03477    9.0247662    9.0247662    9.0247662    80.565597 
  607300    298.07761   -11476.477            0   -10588.852    3215.5966    737.04921    9.0330031    9.0330031    9.0330031    72.079376 
  607400    294.03816   -11466.431            0   -10590.835   -20065.954    739.28623    9.0421326    9.0421326    9.0421326    57.570477 
  607500    309.90303   -11515.705            0   -10592.867    -15944.68    740.80988    9.0483402    9.0483402    9.0483402    71.367804 
  607600    305.53352   -11504.375            0   -10594.549   -20263.661    741.23917    9.0500877    9.0500877    9.0500877     64.67305 
  607700    296.93197   -11480.767            0   -10596.554   -26371.262     740.3173    9.0463343    9.0463343    9.0463343    61.500888 
  607800     294.4802    -11475.85            0   -10598.938   -13529.848     738.2453    9.0378868    9.0378868    9.0378868    71.034426 
  607900    305.43765   -11511.291            0    -10601.75    706.99551    735.62152     9.027167     9.027167     9.027167     64.07079 
  608000    296.88657   -11487.107            0    -10603.03    14142.296    733.18703    9.0171977    9.0171977    9.0171977    82.492283 
  608100    294.01552   -11479.053            0   -10603.525    16754.547    731.56395    9.0105389    9.0105389    9.0105389    62.712566 
  608200    301.53966   -11504.482            0   -10606.548    40513.247    730.95667    9.0080449    9.0080449    9.0080449    63.982156 
  608300    285.22302   -11458.072            0   -10608.727    21359.179    731.87942    9.0118339    9.0118339    9.0118339    78.050351 
  608400    303.06259   -11515.924            0   -10613.455    5876.0039    733.70668    9.0193275    9.0193275    9.0193275    55.034145 
  608500    293.60825    -11489.78            0   -10615.465    2245.5633    735.97709    9.0286212    9.0286212    9.0286212    66.203329 
  608600    297.08382   -11503.441            0   -10618.776   -6916.4916    738.22599     9.037808     9.037808     9.037808    68.266018 
  608700    294.63065   -11497.567            0   -10620.207   -29895.882    739.88623    9.0445781    9.0445781    9.0445781    51.205353 
  608800    285.64347   -11472.602            0   -10622.004   -22777.715    740.26519     9.046122     9.046122     9.046122    72.724392 
  608900    306.98715   -11537.946            0   -10623.791   -14622.738     739.3437    9.0423669    9.0423669    9.0423669    60.571106 
  609000    298.71221   -11513.549            0   -10624.036   -8814.2723    737.38594    9.0343786    9.0343786    9.0343786    60.424675 
  609100    302.78557    -11523.81            0   -10622.166    2765.0537    734.86968    9.0240905    9.0240905    9.0240905    54.799317 
  609200    297.34178   -11503.533            0     -10618.1    21045.936    732.59861    9.0147848    9.0147848    9.0147848     67.75443 
  609300    298.51899   -11502.604            0   -10613.666    16497.641    731.39035    9.0098261    9.0098261    9.0098261    64.159399 
  609400    292.74882   -11478.427            0   -10606.671    18348.612    731.57501    9.0105843    9.0105843    9.0105843    52.778316 
  609500    298.86672   -11490.138            0   -10600.164    11721.344    733.00595    9.0164553    9.0164553    9.0164553    64.911028 
  609600    303.86703   -11495.533            0   -10590.668    -8172.698    735.41359    9.0263164    9.0263164    9.0263164    54.758242 
  609700    303.05686   -11483.922            0   -10581.471   -6130.8787    738.00033     9.036887     9.036887     9.036887    67.415266 
  609800    297.54988   -11455.968            0   -10569.916   -18732.995    740.14424    9.0456293    9.0456293    9.0456293    77.227187 
  609900    306.60948   -11473.092            0   -10560.061   -17787.214    741.31454    9.0503944    9.0503944    9.0503944    57.250798 
  610000    303.77889   -11456.381            0   -10551.779   -19604.071    741.25456    9.0501503    9.0501503    9.0501503    67.879774 
  610100     304.1415   -11450.141            0    -10544.46    697.42678    740.16728    9.0457232    9.0457232    9.0457232    55.686572 
  610200    311.80103   -11467.682            0   -10539.192    742.06324    738.49495    9.0389054    9.0389054    9.0389054     80.24004 
  610300    317.86031   -11481.334            0     -10534.8    18148.642    736.62015      9.03125      9.03125      9.03125    83.219545 
  610400     309.8952   -11455.549            0   -10532.734    16557.331     735.1605    9.0252808    9.0252808    9.0252808    56.984581 
  610500    309.62122   -11455.114            0   -10533.115     15304.29    734.41815    9.0222419    9.0222419    9.0222419    72.776598 
  610600    312.87713   -11468.256            0   -10536.561    16158.483     734.6664    9.0232584    9.0232584    9.0232584    54.467321 
  610700    305.12602    -11449.79            0   -10541.176    12197.326    735.78442    9.0278332    9.0278332    9.0278332    63.866279 
  610800    297.12532    -11432.16            0   -10547.372   -3061.5027    737.35619    9.0342571    9.0342571    9.0342571    65.554411 
  610900    295.39071   -11435.645            0   -10556.022   -16319.589    738.74711    9.0399341    9.0399341    9.0399341    50.872236 
  611000    307.40801   -11480.445            0   -10565.036   -7659.8658    739.38058    9.0425173    9.0425173    9.0425173    61.905565 
  611100    303.55578   -11479.016            0   -10575.079   -13452.454    739.47319    9.0428948    9.0428948    9.0428948    64.572329 
  611200    299.58736   -11475.326            0   -10583.206   -13111.312    738.81491    9.0402107    9.0402107    9.0402107    72.758585 
  611300    303.96365   -11494.428            0   -10589.277   -8654.9473    737.40453    9.0344545    9.0344545    9.0344545    75.537547 
  611400    292.04815   -11461.503            0   -10591.833    4189.0852    735.70205    9.0274964    9.0274964    9.0274964    47.822632 
  611500    302.65076    -11497.29            0   -10596.047    8254.4335    734.17159    9.0212321    9.0212321    9.0212321    70.289216 
  611600    301.59675   -11493.889            0   -10595.785    20368.567    733.24272     9.017426     9.017426     9.017426    84.003721 
  611700    293.37344   -11469.724            0   -10596.108    11431.349    733.26926    9.0175348    9.0175348    9.0175348    54.478327 
  611800     294.2643    -11471.55            0   -10595.281     18731.22    734.22826    9.0214642    9.0214642    9.0214642    76.778596 
  611900    302.68562   -11498.384            0   -10597.038    6475.7165    735.82146    9.0279848    9.0279848    9.0279848    59.405735 
  612000    299.19514   -11486.805            0   -10595.853   -5465.0407    737.60794    9.0352851    9.0352851    9.0352851    74.520846 
Loop time of 1556.24 on 16 procs for 100000 steps with 1000 atoms

Performance: 5.552 ns/day, 4.323 hours/ns, 64.257 timesteps/s
95.1% CPU use with 16 MPI tasks x no OpenMP threads

MPI task timing breakdown:
Section |  min time  |  avg time  |  max time  |%varavg| %total
---------------------------------------------------------------
Pair    | 180.14     | 193.21     | 274.31     | 155.3 | 12.42
Neigh   | 64.65      | 69.406     | 94.182     |  80.4 |  4.46
Comm    | 37.881     | 143.8      | 161.85     | 235.6 |  9.24
Output  | 754.74     | 779.52     | 1146.3     | 339.2 | 50.09
Modify  | 2.6191     | 369.55     | 394.39     | 492.8 | 23.75
Other   |            | 0.756      |            |       |  0.05

Nlocal:    62.5 ave 67 max 58 min
Histogram: 2 0 3 1 2 0 4 2 1 1
Nghost:    1936.12 ave 1954 max 1909 min
Histogram: 1 0 1 2 2 1 2 2 2 3
Neighs:    0 ave 0 max 0 min
Histogram: 16 0 0 0 0 0 0 0 0 0
FullNghs:  19947.6 ave 21648 max 18303 min
Histogram: 2 1 2 1 2 1 2 3 1 1

Total # of neighbors = 319162
Ave neighs/atom = 319.162
Neighbor list builds = 100000
Dangerous builds not checked
Total wall time: 2:27:07
