LAMMPS (16 Mar 2018)
Reading data file ...
  orthogonal box = (-4.72819 -4.72819 -4.72819) to (4.72819 4.72819 4.72819)
  2 by 2 by 4 MPI processor grid
  reading atoms ...
  1000 atoms
Reading potential file /home/fs01/ajm529/lammps-16Mar18/potentials/sw_potentials/AG/eps2.23.sw with DATE: 2008-01-29
Neighbor list info ...
  update every 1 steps, delay 0 steps, check no
  max neighbors/atom: 2000, page size: 100000
  master list distance cutoff = 3.836
  ghost atom cutoff = 3.836
  binsize = 1.918, bins = 5 5 5
  1 neighbor lists, perpetual/occasional/extra = 1 0 0
  (1) pair sw, perpetual
      attributes: full, newton on
      pair build: full/bin/atomonly
      stencil: full/bin/3d
      bin: standard
Setting up Verlet run ...
  Unit style    : real
  Current step  : 0
  Time step     : 1
Per MPI rank memory allocation (min/avg/max) = 3.518 | 3.585 | 4.576 Mbytes
Step Temp E_pair E_mol TotEng Press Volume Lx Ly Lz S/CPU 
       0          300   -10102.136            0   -9208.7874   -44475.269    845.62038     9.456385     9.456385     9.456385            0 
     100     323.6637   -10177.472            0    -9213.657   -50173.173    843.44144    9.4482558    9.4482558    9.4482558    48.253751 
     200    338.75118   -10237.168            0   -9228.4249   -37467.636    836.91164    9.4238103    9.4238103    9.4238103     47.49131 
     300    332.75526   -10241.121            0   -9250.2327   -36132.489    827.46519    9.3882197    9.3882197    9.3882197    49.132646 
     400    335.33915    -10274.19            0    -9275.607     -17665.1    816.59268    9.3469193    9.3469193    9.3469193    57.556445 
     500    347.29472   -10331.953            0   -9297.7684    -6176.308    805.91289    9.3059925    9.3059925    9.3059925    50.673425 
     600    335.65008   -10312.864            0   -9313.3559    10490.757    796.90357    9.2711852    9.2711852    9.2711852    52.373311 
     700    324.79045   -10294.474            0   -9327.3035    16596.268    790.16187    9.2449668    9.2449668    9.2449668    46.222126 
     800    332.01618   -10334.206            0   -9345.5182    14308.012    785.80948    9.2279611    9.2279611    9.2279611     29.63093 
     900    326.38923    -10337.39            0   -9365.4583    6567.2298    783.63002    9.2194219    9.2194219    9.2194219    38.533262 
    1000    321.55749   -10344.481            0   -9386.9374    6671.9968     783.2011    9.2177395    9.2177395    9.2177395    48.170778 
Loop time of 22.043 on 16 procs for 1000 steps with 1000 atoms

Performance: 3.920 ns/day, 6.123 hours/ns, 45.366 timesteps/s
94.6% CPU use with 16 MPI tasks x no OpenMP threads

MPI task timing breakdown:
Section |  min time  |  avg time  |  max time  |%varavg| %total
---------------------------------------------------------------
Pair    | 2.1114     | 2.3204     | 2.4996     |   8.0 | 10.53
Neigh   | 0.74064    | 0.8031     | 0.84951    |   3.2 |  3.64
Comm    | 0.73695    | 0.94565    | 1.217      |  15.3 |  4.29
Output  | 11.813     | 12.195     | 17.885     |  42.1 | 55.33
Modify  | 0.080583   | 5.7702     | 6.1533     |  61.2 | 26.18
Other   |            | 0.008286   |            |       |  0.04

Nlocal:    62.5 ave 66 max 56 min
Histogram: 1 0 0 2 0 0 4 3 3 3
Nghost:    1857.75 ave 1872 max 1839 min
Histogram: 1 1 0 1 3 4 2 0 1 3
Neighs:    0 ave 0 max 0 min
Histogram: 16 0 0 0 0 0 0 0 0 0
FullNghs:  18838.6 ave 20030 max 16839 min
Histogram: 1 0 2 0 0 1 6 2 2 2

Total # of neighbors = 301418
Ave neighs/atom = 301.418
Neighbor list builds = 1000
Dangerous builds not checked
Setting up Verlet run ...
  Unit style    : real
  Current step  : 1000
  Time step     : 1
Per MPI rank memory allocation (min/avg/max) = 3.768 | 4.426 | 4.579 Mbytes
Step Temp E_pair E_mol TotEng Press Volume Lx Ly Lz S/CPU 
    1000    321.55749   -10344.481            0   -9386.9374    6671.9968     783.2011    9.2177395    9.2177395    9.2177395            0 
    1100    318.77475   -10355.994            0   -9406.7367    9603.1454    783.68449    9.2196355    9.2196355    9.2196355    54.892756 
    1200    324.02786   -10392.795            0   -9427.8952    7420.2331    784.68209    9.2235459    9.2235459    9.2235459    51.888487 
    1300    314.22917   -10382.921            0   -9447.2006    9577.8055    786.26135    9.2297296    9.2297296    9.2297296    35.201724 
    1400    315.52845   -10406.765            0   -9467.1756     1843.465    788.31405    9.2377546    9.2377546    9.2377546    49.672905 
    1500     320.6824   -10442.096            0   -9487.1581    6091.5644    790.82009    9.2475332    9.2475332    9.2475332    56.537333 
    1600    315.29136   -10444.439            0   -9505.5554   -12398.268    793.56325    9.2582133    9.2582133    9.2582133    44.487105 
    1700     309.0322   -10442.218            0   -9521.9728   -19191.348    795.55235    9.2659422    9.2659422    9.2659422    53.726019 
    1800    305.55052   -10449.205            0   -9539.3275   -7349.0198     796.1565    9.2682872    9.2682872    9.2682872    45.818754 
    1900    304.48787   -10461.043            0   -9554.3297   -3422.8666    795.62835    9.2662373    9.2662373    9.2662373    48.150158 
    2000    302.83882   -10470.017            0   -9568.2147   -6432.0272    794.14381    9.2604705    9.2604705    9.2604705    39.568555 
Loop time of 21.2674 on 16 procs for 1000 steps with 1000 atoms

Performance: 4.063 ns/day, 5.908 hours/ns, 47.020 timesteps/s
94.7% CPU use with 16 MPI tasks x no OpenMP threads

MPI task timing breakdown:
Section |  min time  |  avg time  |  max time  |%varavg| %total
---------------------------------------------------------------
Pair    | 2.2941     | 2.4298     | 2.5969     |   4.4 | 11.42
Neigh   | 0.77046    | 0.81016    | 0.84387    |   2.2 |  3.81
Comm    | 0.7882     | 0.98923    | 1.1647     |   8.8 |  4.65
Output  | 11.802     | 12.128     | 16.965     |  35.9 | 57.03
Modify  | 0.064458   | 4.9017     | 5.2277     |  56.4 | 23.05
Other   |            | 0.008297   |            |       |  0.04

Nlocal:    62.5 ave 66 max 53 min
Histogram: 1 0 0 0 1 3 0 3 3 5
Nghost:    1828.38 ave 1846 max 1813 min
Histogram: 1 1 2 3 3 0 3 1 1 1
Neighs:    0 ave 0 max 0 min
Histogram: 16 0 0 0 0 0 0 0 0 0
FullNghs:  18570.8 ave 19733 max 15588 min
Histogram: 1 0 0 0 1 3 0 3 5 3

Total # of neighbors = 297132
Ave neighs/atom = 297.132
Neighbor list builds = 1000
Dangerous builds not checked
Setting up Verlet run ...
  Unit style    : real
  Current step  : 2000
  Time step     : 1
Per MPI rank memory allocation (min/avg/max) = 3.768 | 4.477 | 4.579 Mbytes
Step Temp E_pair E_mol TotEng Press Volume Lx Ly Lz S/CPU 
    2000    302.83882   -10470.017            0   -9568.2147   -6432.0272    794.14381    9.2604705    9.2604705    9.2604705            0 
    2100    308.61609   -10498.441            0   -9579.4346   -11045.869    791.79057    9.2513144    9.2513144    9.2513144    48.594014 
    2200     304.3095   -10496.105            0    -9589.923   -10517.485    788.67759    9.2391744    9.2391744    9.2391744    35.495979 
    2300     303.7605   -10504.009            0   -9599.4618   -1756.6081    784.90747    9.2244289    9.2244289    9.2244289    56.198579 
    2400    300.94855   -10504.417            0   -9608.2435    8707.1017    780.44522    9.2069152    9.2069152    9.2069152    45.317086 
    2500    307.40929   -10531.544            0    -9616.132    5957.6472    776.22075    9.1902731    9.1902731    9.1902731    56.521418 
    2600    302.85512   -10525.184            0   -9623.3334    5280.5617    772.82836    9.1768652    9.1768652    9.1768652    54.417284 
    2700    300.46166   -10524.387            0   -9629.6637    11427.626    770.36725    9.1671134    9.1671134    9.1671134    41.693359 
    2800    313.88989   -10570.863            0   -9636.1529    24689.514    768.97532    9.1615889    9.1615889    9.1615889    46.377985 
    2900    309.18675   -10564.419            0   -9643.7136     8013.553    769.06393    9.1619408    9.1619408    9.1619408    36.237603 
    3000    302.93548   -10553.217            0   -9651.1273    16334.837    770.29644    9.1668325    9.1668325    9.1668325    47.794143 
Loop time of 21.8746 on 16 procs for 1000 steps with 1000 atoms

Performance: 3.950 ns/day, 6.076 hours/ns, 45.715 timesteps/s
94.7% CPU use with 16 MPI tasks x no OpenMP threads

MPI task timing breakdown:
Section |  min time  |  avg time  |  max time  |%varavg| %total
---------------------------------------------------------------
Pair    | 2.3887     | 2.5317     | 2.6773     |   4.8 | 11.57
Neigh   | 0.78476    | 0.82553    | 0.88112    |   2.7 |  3.77
Comm    | 0.75047    | 0.95169    | 1.1355     |  10.1 |  4.35
Output  | 11.081     | 11.486     | 17.492     |  45.8 | 52.51
Modify  | 0.064756   | 6.0717     | 6.4762     |  62.9 | 27.76
Other   |            | 0.008393   |            |       |  0.04

Nlocal:    62.5 ave 70 max 57 min
Histogram: 2 1 2 3 2 2 2 1 0 1
Nghost:    1879.69 ave 1899 max 1862 min
Histogram: 1 0 4 1 2 3 3 0 1 1
Neighs:    0 ave 0 max 0 min
Histogram: 16 0 0 0 0 0 0 0 0 0
FullNghs:  19145 ave 21537 max 17431 min
Histogram: 2 1 3 2 2 3 0 2 0 1

Total # of neighbors = 306320
Ave neighs/atom = 306.32
Neighbor list builds = 1000
Dangerous builds not checked
Setting up Verlet run ...
  Unit style    : real
  Current step  : 3000
  Time step     : 1
Per MPI rank memory allocation (min/avg/max) = 3.768 | 4.528 | 4.58 Mbytes
Step Temp E_pair E_mol TotEng Press Volume Lx Ly Lz S/CPU 
    3000    302.93548   -10553.217            0   -9651.1273    16334.837    770.29644    9.1668325    9.1668325    9.1668325            0 
    3100    305.44071   -10569.943            0    -9660.393    19827.679    772.36023    9.1750119    9.1750119    9.1750119    55.387951 
    3200    288.41855   -10526.237            0    -9667.376     13171.23    774.99272     9.185424     9.185424     9.185424    42.597701 
    3300    296.37068   -10556.336            0   -9673.7948   -12375.987    777.83729    9.1966485    9.1966485    9.1966485    62.215656 
    3400    299.74032   -10570.602            0   -9678.0268   -8871.5465    780.22709    9.2060573    9.2060573    9.2060573    59.712689 
    3500    302.13725   -10582.037            0   -9682.3242    15454.406    782.09918    9.2134145    9.2134145    9.2134145    46.552438 
    3600    293.75229   -10558.096            0   -9683.3515   -18206.623    783.59362    9.2192791    9.2192791    9.2192791    56.060852 
    3700    287.95743   -10541.367            0   -9683.8786    -20808.36    783.93047       9.2206       9.2206       9.2206    45.864425 
    3800    292.85669   -10553.582            0   -9681.5045   -6581.5613    783.22524    9.2178342    9.2178342    9.2178342    50.484066 
    3900    292.78958   -10550.449            0   -9678.5718   -19923.701    781.87193    9.2125221    9.2125221    9.2125221    52.737748 
    4000    293.16731   -10547.254            0   -9674.2516    8027.7547     779.9517    9.2049741    9.2049741    9.2049741    59.882988 
Loop time of 19.0942 on 16 procs for 1000 steps with 1000 atoms

Performance: 4.525 ns/day, 5.304 hours/ns, 52.372 timesteps/s
94.8% CPU use with 16 MPI tasks x no OpenMP threads

MPI task timing breakdown:
Section |  min time  |  avg time  |  max time  |%varavg| %total
---------------------------------------------------------------
Pair    | 2.2666     | 2.4817     | 2.7132     |   7.1 | 13.00
Neigh   | 0.74896    | 0.81319    | 0.86183    |   3.4 |  4.26
Comm    | 0.73351    | 1.0074     | 1.2865     |  14.1 |  5.28
Output  | 9.3878     | 9.7237     | 14.703     |  41.2 | 50.92
Modify  | 0.07974    | 5.0599     | 5.396      |  57.2 | 26.50
Other   |            | 0.008309   |            |       |  0.04

Nlocal:    62.5 ave 67 max 58 min
Histogram: 1 2 0 3 2 3 1 1 2 1
Nghost:    1859.75 ave 1879 max 1840 min
Histogram: 1 1 3 1 2 3 1 1 0 3
Neighs:    0 ave 0 max 0 min
Histogram: 16 0 0 0 0 0 0 0 0 0
FullNghs:  18935.8 ave 20581 max 17385 min
Histogram: 2 1 1 4 0 3 1 1 1 2

Total # of neighbors = 302972
Ave neighs/atom = 302.972
Neighbor list builds = 1000
Dangerous builds not checked
Setting up Verlet run ...
  Unit style    : real
  Current step  : 4000
  Time step     : 1
Per MPI rank memory allocation (min/avg/max) = 4.577 | 4.578 | 4.58 Mbytes
Step Temp E_pair E_mol TotEng Press Volume Lx Ly Lz S/CPU 
    4000    293.16731   -10547.254            0   -9674.2516    8027.7547     779.9517    9.2049741    9.2049741    9.2049741            0 
    4100    296.13972   -10548.858            0   -9667.0043   -4678.5326    778.03247    9.1974176    9.1974176    9.1974176    44.552878 
    4200    284.28839   -10505.276            0   -9658.7135   -102.04352    776.05683    9.1896261    9.1896261    9.1896261    47.651703 
    4300     296.9499   -10535.484            0   -9651.2182    6422.9488     774.2795    9.1826054    9.1826054    9.1826054    33.232623 
    4400    299.87065   -10535.337            0   -9642.3733    742.22562    772.95353    9.1773606    9.1773606    9.1773606    51.535464 
    4500    307.16834   -10548.472            0   -9633.7773    6300.3007    772.18656    9.1743241    9.1743241    9.1743241     45.12143 
    4600    307.66809   -10540.316            0   -9624.1329    15920.534     771.8761    9.1730944    9.1730944    9.1730944    37.632755 
    4700    306.11088   -10528.879            0    -9617.333    12446.539    772.18292    9.1743097    9.1743097    9.1743097     45.06504 
    4800    307.69469   -10527.512            0   -9611.2499     19746.33    773.29021    9.1786928    9.1786928    9.1786928    41.370825 
    4900    305.07774   -10514.158            0   -9605.6891    14115.088    775.42044    9.1871135    9.1871135    9.1871135    44.968392 
    5000     289.2048   -10461.943            0   -9600.7403     16058.55    778.49192    9.1992277    9.1992277    9.1992277    40.121389 
Loop time of 23.5185 on 16 procs for 1000 steps with 1000 atoms

Performance: 3.674 ns/day, 6.533 hours/ns, 42.520 timesteps/s
94.6% CPU use with 16 MPI tasks x no OpenMP threads

MPI task timing breakdown:
Section |  min time  |  avg time  |  max time  |%varavg| %total
---------------------------------------------------------------
Pair    | 2.2896     | 2.4779     | 2.6211     |   5.7 | 10.54
Neigh   | 0.75574    | 0.80739    | 0.84872    |   2.8 |  3.43
Comm    | 0.84521    | 1.0255     | 1.2659     |  11.2 |  4.36
Output  | 13.208     | 13.584     | 19.147     |  39.0 | 57.76
Modify  | 0.052585   | 5.6155     | 5.9912     |  60.6 | 23.88
Other   |            | 0.008306   |            |       |  0.04

Nlocal:    62.5 ave 68 max 57 min
Histogram: 2 1 1 1 3 2 1 3 1 1
Nghost:    1863.62 ave 1878 max 1843 min
Histogram: 1 1 1 0 0 5 3 2 0 3
Neighs:    0 ave 0 max 0 min
Histogram: 16 0 0 0 0 0 0 0 0 0
FullNghs:  18949 ave 20740 max 17393 min
Histogram: 2 1 1 3 2 2 2 1 1 1

Total # of neighbors = 303184
Ave neighs/atom = 303.184
Neighbor list builds = 1000
Dangerous builds not checked
Setting up Verlet run ...
  Unit style    : real
  Current step  : 5000
  Time step     : 1
Per MPI rank memory allocation (min/avg/max) = 4.577 | 4.578 | 4.58 Mbytes
Step Temp E_pair E_mol TotEng Press Volume Lx Ly Lz S/CPU 
    5000     289.2048   -10461.943            0   -9600.7403     16058.55    778.49192    9.1992277    9.1992277    9.1992277            0 
    5100    298.67885   -10487.466            0   -9598.0516    -9881.415    782.09065     9.213381     9.213381     9.213381    57.243772 
    5200    302.67479   -10495.947            0   -9594.6331    5919.6297    785.22294    9.2256646    9.2256646    9.2256646    38.188355 
    5300    301.49161    -10490.25            0   -9592.4597   -3748.8732    787.96168     9.236378     9.236378     9.236378    58.414775 
    5400    305.79534   -10501.931            0   -9591.3244   -25105.136    790.16728    9.2449879    9.2449879    9.2449879    52.095633 
    5500     306.6928   -10503.502            0   -9590.2234   -2173.2567    791.48015    9.2501053    9.2501053    9.2501053    48.050238 
    5600    305.64529   -10499.859            0   -9589.6995   -6711.4433    792.34018    9.2534545    9.2534545    9.2534545    49.672066 
    5700    291.54368   -10457.465            0   -9589.2979   -11886.661     792.8487    9.2554337    9.2554337    9.2554337    44.866447 
    5800    308.71336   -10508.504            0   -9589.2084   -6915.0293    792.62061    9.2545461    9.2545461    9.2545461    31.869466 
    5900    302.61339   -10489.378            0   -9588.2475   -9452.1423    791.90618    9.2517647    9.2517647    9.2517647    41.894207 
    6000    302.11225   -10486.293            0   -9586.6541     45.86407    790.98704    9.2481839    9.2481839    9.2481839    50.704671 
Loop time of 21.8171 on 16 procs for 1000 steps with 1000 atoms

Performance: 3.960 ns/day, 6.060 hours/ns, 45.836 timesteps/s
94.7% CPU use with 16 MPI tasks x no OpenMP threads

MPI task timing breakdown:
Section |  min time  |  avg time  |  max time  |%varavg| %total
---------------------------------------------------------------
Pair    | 2.3346     | 2.4357     | 2.6659     |   5.7 | 11.16
Neigh   | 0.78927    | 0.81524    | 0.8881     |   3.0 |  3.74
Comm    | 0.66583    | 0.96866    | 1.0935     |  11.6 |  4.44
Output  | 11.282     | 11.676     | 17.536     |  44.3 | 53.52
Modify  | 0.052706   | 5.913      | 6.307      |  62.2 | 27.10
Other   |            | 0.008361   |            |       |  0.04

Nlocal:    62.5 ave 67 max 57 min
Histogram: 1 0 1 2 3 3 1 0 0 5
Nghost:    1841.94 ave 1862 max 1825 min
Histogram: 3 3 2 0 1 0 0 3 2 2
Neighs:    0 ave 0 max 0 min
Histogram: 16 0 0 0 0 0 0 0 0 0
FullNghs:  18667.1 ave 20024 max 16983 min
Histogram: 1 1 2 2 2 2 1 0 0 5

Total # of neighbors = 298674
Ave neighs/atom = 298.674
Neighbor list builds = 1000
Dangerous builds not checked
Setting up Verlet run ...
  Unit style    : real
  Current step  : 6000
  Time step     : 1
Per MPI rank memory allocation (min/avg/max) = 4.577 | 4.578 | 4.58 Mbytes
Step Temp E_pair E_mol TotEng Press Volume Lx Ly Lz S/CPU 
    6000    302.11225   -10486.293            0   -9586.6541     45.86407    790.98704    9.2481839    9.2481839    9.2481839            0 
    6100    312.02041   -10515.733            0   -9586.5891    4091.4962    790.05674    9.2445568    9.2445568    9.2445568    39.996868 
    6200    301.57638   -10484.061            0   -9586.0181    3090.7507    789.43701     9.242139     9.242139     9.242139    42.096809 
    6300    299.94008   -10478.952            0   -9585.7812    6535.6904    789.16328    9.2410706    9.2410706    9.2410706    60.394752 
    6400    311.44698   -10514.839            0   -9587.4031   -6261.1351    789.04392    9.2406047    9.2406047    9.2406047    48.092174 
    6500    298.75596   -10478.156            0    -9588.512   -9733.4588    788.67801    9.2391761    9.2391761    9.2391761    42.830917 
    6600    312.51592   -10521.411            0   -9590.7923   -2134.7998    788.08806    9.2368718    9.2368718    9.2368718    58.066194 
    6700    301.46414   -10491.242            0   -9593.5335   -8349.0833    787.51688    9.2346397    9.2346397    9.2346397    40.920053 
    6800    292.85015   -10467.167            0   -9595.1094    3162.7916    787.19824    9.2333941    9.2333941    9.2333941    45.103518 
    6900    303.30588   -10502.464            0    -9599.271   -13846.214    786.85875    9.2320666    9.2320666    9.2320666     39.67072 
    7000    299.31662   -10491.772            0   -9600.4579    2197.4662    786.05592    9.2289257    9.2289257    9.2289257    35.149123 
Loop time of 22.6944 on 16 procs for 1000 steps with 1000 atoms

Performance: 3.807 ns/day, 6.304 hours/ns, 44.064 timesteps/s
94.7% CPU use with 16 MPI tasks x no OpenMP threads

MPI task timing breakdown:
Section |  min time  |  avg time  |  max time  |%varavg| %total
---------------------------------------------------------------
Pair    | 2.3171     | 2.423      | 2.5547     |   4.7 | 10.68
Neigh   | 0.77242    | 0.80997    | 0.86186    |   2.6 |  3.57
Comm    | 0.79902    | 0.98312    | 1.1262     |   9.5 |  4.33
Output  | 12.689     | 13.051     | 18.419     |  38.4 | 57.51
Modify  | 0.050778   | 5.4194     | 5.7812     |  59.5 | 23.88
Other   |            | 0.008308   |            |       |  0.04

Nlocal:    62.5 ave 69 max 54 min
Histogram: 1 0 0 1 5 0 5 1 2 1
Nghost:    1877.31 ave 1897 max 1856 min
Histogram: 1 1 1 2 1 5 1 2 1 1
Neighs:    0 ave 0 max 0 min
Histogram: 16 0 0 0 0 0 0 0 0 0
FullNghs:  18777 ave 20646 max 16049 min
Histogram: 1 0 0 2 3 1 3 3 1 2

Total # of neighbors = 300432
Ave neighs/atom = 300.432
Neighbor list builds = 1000
Dangerous builds not checked
Setting up Verlet run ...
  Unit style    : real
  Current step  : 7000
  Time step     : 1
Per MPI rank memory allocation (min/avg/max) = 4.577 | 4.578 | 4.58 Mbytes
Step Temp E_pair E_mol TotEng Press Volume Lx Ly Lz S/CPU 
    7000    299.31662   -10491.772            0   -9600.4579    2197.4662    786.05592    9.2289257    9.2289257    9.2289257            0 
    7100    298.63352   -10493.837            0   -9604.5569     5493.318    785.04564    9.2249701    9.2249701    9.2249701    54.611679 
    7200    306.86665   -10522.179            0    -9608.383     -4890.22    784.13751    9.2214117    9.2214117    9.2214117     54.94491 
    7300    312.87973   -10545.254            0   -9613.5517     11499.15    782.92486    9.2166556    9.2166556    9.2166556    50.499223 
    7400    304.16237   -10524.264            0     -9618.52    14811.971    781.93323    9.2127628    9.2127628    9.2127628    58.797473 
    7500     306.2674    -10536.96            0   -9624.9482    2797.5962    781.17396    9.2097799    9.2097799    9.2097799    44.593876 
    7600    303.65696   -10535.657            0   -9631.4182    6619.0415    780.20211    9.2059591    9.2059591    9.2059591    43.421317 
    7700    297.68485   -10525.186            0   -9638.7316    11593.954    779.19048    9.2019785    9.2019785    9.2019785    44.993941 
    7800    298.80591    -10536.57            0   -9646.7774    3799.2415    778.38044    9.1987886    9.1987886    9.1987886     40.09907 
    7900    299.60092   -10546.474            0   -9654.3138    20837.907     778.0525    9.1974966    9.1974966    9.1974966    49.653137 
    8000    295.11802   -10539.418            0   -9660.6065    18323.039    778.85216    9.2006465    9.2006465    9.2006465    59.729936 
Loop time of 20.2821 on 16 procs for 1000 steps with 1000 atoms

Performance: 4.260 ns/day, 5.634 hours/ns, 49.305 timesteps/s
94.8% CPU use with 16 MPI tasks x no OpenMP threads

MPI task timing breakdown:
Section |  min time  |  avg time  |  max time  |%varavg| %total
---------------------------------------------------------------
Pair    | 2.304      | 2.472      | 2.6329     |   5.7 | 12.19
Neigh   | 0.78382    | 0.81269    | 0.86484    |   2.4 |  4.01
Comm    | 0.78319    | 0.99593    | 1.1934     |  11.0 |  4.91
Output  | 10.729     | 11.058     | 15.943     |  37.9 | 54.52
Modify  | 0.050098   | 4.935      | 5.2646     |  56.8 | 24.33
Other   |            | 0.00832    |            |       |  0.04

Nlocal:    62.5 ave 72 max 54 min
Histogram: 1 2 3 1 1 1 3 3 0 1
Nghost:    1867.75 ave 1880 max 1852 min
Histogram: 1 0 2 4 0 2 1 2 1 3
Neighs:    0 ave 0 max 0 min
Histogram: 16 0 0 0 0 0 0 0 0 0
FullNghs:  18942 ave 21970 max 16231 min
Histogram: 1 2 2 1 2 1 4 2 0 1

Total # of neighbors = 303072
Ave neighs/atom = 303.072
Neighbor list builds = 1000
Dangerous builds not checked
Setting up Verlet run ...
  Unit style    : real
  Current step  : 8000
  Time step     : 1
Per MPI rank memory allocation (min/avg/max) = 4.577 | 4.578 | 4.58 Mbytes
Step Temp E_pair E_mol TotEng Press Volume Lx Ly Lz S/CPU 
    8000    295.11802   -10539.418            0   -9660.6065    18323.039    778.85216    9.2006465    9.2006465    9.2006465            0 
    8100    308.29265    -10584.79            0   -9666.7468   -11710.258    780.37134    9.2066246    9.2066246    9.2066246    40.200895 
    8200    292.27017   -10541.153            0    -9670.822   -20758.101    781.52151    9.2111455    9.2111455    9.2111455    56.388447 
    8300    296.41581   -10557.327            0   -9674.6511   -15956.969    781.76737    9.2121114    9.2121114    9.2121114    46.051521 
    8400    297.86093    -10564.34            0   -9677.3611    12635.091    781.26742    9.2101472    9.2101472    9.2101472    49.262273 
    8500    294.62412   -10555.865            0   -9678.5245    18519.873    780.99997    9.2090961    9.2090961    9.2090961    50.982636 
    8600    297.32073   -10563.934            0    -9678.564    -2911.116    781.15698    9.2097132    9.2097132    9.2097132    35.956115 
    8700    291.25076   -10545.149            0   -9677.8537    5982.1451    781.21911    9.2099574    9.2099574    9.2099574    54.334382 
    8800    299.83455     -10570.6            0   -9677.7442   -996.08747    781.30913    9.2103111    9.2103111    9.2103111    50.309227 
    8900    292.14382   -10544.707            0   -9674.7526   -8612.0868    781.26768    9.2101482    9.2101482    9.2101482    48.771741 
    9000    291.59203   -10538.636            0   -9670.3246    15981.852    781.23487    9.2100193    9.2100193    9.2100193    49.549578 
Loop time of 21.1017 on 16 procs for 1000 steps with 1000 atoms

Performance: 4.094 ns/day, 5.862 hours/ns, 47.390 timesteps/s
94.8% CPU use with 16 MPI tasks x no OpenMP threads

MPI task timing breakdown:
Section |  min time  |  avg time  |  max time  |%varavg| %total
---------------------------------------------------------------
Pair    | 2.3312     | 2.4624     | 2.6073     |   5.1 | 11.67
Neigh   | 0.77128    | 0.80843    | 0.87196    |   2.9 |  3.83
Comm    | 0.81524    | 1.0146     | 1.1826     |  10.3 |  4.81
Output  | 11.192     | 11.542     | 16.741     |  39.5 | 54.70
Modify  | 0.066354   | 5.2663     | 5.6166     |  58.5 | 24.96
Other   |            | 0.008278   |            |       |  0.04

Nlocal:    62.5 ave 69 max 58 min
Histogram: 3 0 1 5 2 2 2 0 0 1
Nghost:    1863.88 ave 1879 max 1850 min
Histogram: 1 2 1 3 1 1 3 2 0 2
Neighs:    0 ave 0 max 0 min
Histogram: 16 0 0 0 0 0 0 0 0 0
FullNghs:  18888.4 ave 20879 max 17367 min
Histogram: 1 2 0 4 4 2 2 0 0 1

Total # of neighbors = 302214
Ave neighs/atom = 302.214
Neighbor list builds = 1000
Dangerous builds not checked
Setting up Verlet run ...
  Unit style    : real
  Current step  : 9000
  Time step     : 1
Per MPI rank memory allocation (min/avg/max) = 4.577 | 4.578 | 4.58 Mbytes
Step Temp E_pair E_mol TotEng Press Volume Lx Ly Lz S/CPU 
    9000    291.59203   -10538.636            0   -9670.3246    15981.852    781.23487    9.2100193    9.2100193    9.2100193            0 
    9100    294.31429   -10539.966            0   -9663.5479   -5615.4403    781.71479    9.2119048    9.2119048    9.2119048    41.541927 
    9200    296.08397   -10534.477            0   -9652.7893    8073.0915    782.41417    9.2146512    9.2146512    9.2146512    39.441394 
    9300    301.99886   -10539.553            0   -9640.2519    4570.4275    783.61966    9.2193812    9.2193812    9.2193812    47.436862 
    9400    288.32133   -10483.658            0   -9625.0868   -733.48236    785.21232     9.225623     9.225623     9.225623    42.039101 
    9500     303.1003   -10515.315            0   -9612.7345   -912.69106    787.00723    9.2326472    9.2326472    9.2326472    39.042516 
    9600    306.29807       -10514            0   -9601.8964   -5052.9617    788.79767    9.2396433    9.2396433    9.2396433    53.301768 
    9700    305.39416   -10502.472            0   -9593.0599   -15256.193    790.03906    9.2444878    9.2444878    9.2444878    44.048709 
    9800    308.49242    -10504.39            0   -9585.7522   -21958.649    790.53245    9.2464118    9.2464118    9.2464118    51.449429 
    9900    303.88262   -10485.001            0   -9580.0908     -14830.4    790.04019    9.2444922    9.2444922    9.2444922    44.260506 
   10000     300.7655    -10470.61            0   -9574.9819   -20490.879    788.83792    9.2398005    9.2398005    9.2398005    47.040623 
Loop time of 22.4659 on 16 procs for 1000 steps with 1000 atoms

Performance: 3.846 ns/day, 6.241 hours/ns, 44.512 timesteps/s
94.7% CPU use with 16 MPI tasks x no OpenMP threads

MPI task timing breakdown:
Section |  min time  |  avg time  |  max time  |%varavg| %total
---------------------------------------------------------------
Pair    | 2.3175     | 2.4826     | 2.6727     |   5.4 | 11.05
Neigh   | 0.78932    | 0.82287    | 0.89424    |   2.7 |  3.66
Comm    | 0.67383    | 0.93812    | 1.1341     |  11.0 |  4.18
Output  | 12.482     | 12.84      | 18.153     |  38.3 | 57.15
Modify  | 0.063703   | 5.3742     | 5.7325     |  59.1 | 23.92
Other   |            | 0.008334   |            |       |  0.04

Nlocal:    62.5 ave 67 max 58 min
Histogram: 1 0 2 3 4 2 0 0 3 1
Nghost:    1854.62 ave 1869 max 1840 min
Histogram: 3 1 0 1 3 1 2 2 1 2
Neighs:    0 ave 0 max 0 min
Histogram: 16 0 0 0 0 0 0 0 0 0
FullNghs:  18709.8 ave 20083 max 17320 min
Histogram: 1 1 1 3 4 2 0 1 0 3

Total # of neighbors = 299356
Ave neighs/atom = 299.356
Neighbor list builds = 1000
Dangerous builds not checked
Setting up Verlet run ...
  Unit style    : real
  Current step  : 10000
  Time step     : 1
Per MPI rank memory allocation (min/avg/max) = 4.577 | 4.578 | 4.58 Mbytes
Step Temp E_pair E_mol TotEng Press Volume Lx Ly Lz S/CPU 
   10000     300.7655    -10470.61            0   -9574.9819   -20490.879    788.83792    9.2398005    9.2398005    9.2398005            0 
   10100    300.77115   -10467.793            0   -9572.1477   -8299.9562    786.60208    9.2310626    9.2310626    9.2310626    54.622375 
   10200    308.05201   -10487.874            0   -9570.5479     20088.65    784.09203    9.2212334    9.2212334    9.2212334    55.169343 
   10300    307.29368   -10484.349            0   -9569.2808   -2477.2942    782.19008    9.2137714    9.2137714    9.2137714    40.096401 
   10400    301.20141   -10465.963            0   -9569.0366   -1009.3852    780.77442    9.2082095    9.2082095    9.2082095    53.418461 
   10500    310.09331   -10494.676            0   -9571.2714    4524.2952    779.82102    9.2044599    9.2044599    9.2044599    46.626959 
   10600    317.54381   -10521.031            0   -9575.4398   -1058.0099    779.21212    9.2020637    9.2020637    9.2020637    37.961597 
   10700    304.54918   -10487.768            0   -9580.8729    2094.4607    778.65098    9.1998542    9.1998542    9.1998542    46.170483 
   10800    299.43525   -10479.971            0   -9588.3037    23416.555     778.3894    9.1988239    9.1988239    9.1988239    44.782055 
   10900    305.66101   -10508.629            0   -9598.4224    11469.089    779.09119    9.2015876    9.2015876    9.2015876    51.970924 
   11000    306.71801   -10522.788            0   -9609.4346    -12218.21    780.40337    9.2067506    9.2067506    9.2067506    44.923333 
Loop time of 21.3374 on 16 procs for 1000 steps with 1000 atoms

Performance: 4.049 ns/day, 5.927 hours/ns, 46.866 timesteps/s
94.7% CPU use with 16 MPI tasks x no OpenMP threads

MPI task timing breakdown:
Section |  min time  |  avg time  |  max time  |%varavg| %total
---------------------------------------------------------------
Pair    | 2.3971     | 2.5133     | 2.6389     |   4.8 | 11.78
Neigh   | 0.79047    | 0.82588    | 0.87432    |   2.3 |  3.87
Comm    | 0.80009    | 0.96488    | 1.11       |   9.6 |  4.52
Output  | 10.97      | 11.347     | 16.956     |  43.0 | 53.18
Modify  | 0.068654   | 5.6781     | 6.0552     |  60.8 | 26.61
Other   |            | 0.008373   |            |       |  0.04

Nlocal:    62.5 ave 68 max 56 min
Histogram: 1 1 1 1 4 1 2 1 2 2
Nghost:    1864.62 ave 1875 max 1852 min
Histogram: 1 2 1 2 1 1 3 1 0 4
Neighs:    0 ave 0 max 0 min
Histogram: 16 0 0 0 0 0 0 0 0 0
FullNghs:  18909.6 ave 20592 max 16914 min
Histogram: 1 1 1 2 3 0 2 2 2 2

Total # of neighbors = 302554
Ave neighs/atom = 302.554
Neighbor list builds = 1000
Dangerous builds not checked
Setting up Verlet run ...
  Unit style    : real
  Current step  : 11000
  Time step     : 1
Per MPI rank memory allocation (min/avg/max) = 4.577 | 4.578 | 4.58 Mbytes
Step Temp E_pair E_mol TotEng Press Volume Lx Ly Lz S/CPU 
   11000    306.71801   -10522.788            0   -9609.4346    -12218.21    780.40337    9.2067506    9.2067506    9.2067506            0 
   11100    289.74826   -10482.144            0   -9619.3229    15774.515    781.71681    9.2119128    9.2119128    9.2119128    47.088054 
   11200    283.46569   -10472.955            0   -9628.8429   -5849.4094    783.53531    9.2190504    9.2190504    9.2190504    34.434837 
   11300    290.98072   -10503.699            0   -9637.2081   -584.45019    785.02208    9.2248779    9.2248779    9.2248779    61.863581 
   11400    291.15083   -10509.195            0   -9642.1976   -13226.931    786.01536    9.2287669    9.2287669    9.2287669    48.077479 
   11500    283.41182   -10487.857            0   -9643.9046   -18848.847    786.11697    9.2291646    9.2291646    9.2291646    49.142758 
   11600    295.74803   -10525.196            0   -9644.5093    1612.8723     785.3703    9.2262416    9.2262416    9.2262416    49.523119 
   11700    289.60745   -10505.486            0    -9643.084   -628.17186    784.36296    9.2222953    9.2222953    9.2222953    43.201243 
   11800    309.44902   -10561.944            0   -9640.4582   -6169.0364    783.61973    9.2193815    9.2193815    9.2193815    41.957785 
   11900    289.32339   -10499.832            0   -9638.2766   -9501.7767    782.67428    9.2156722    9.2156722    9.2156722    45.944884 
   12000    287.34147   -10490.031            0   -9634.3775    2831.0447    781.35787    9.2105026    9.2105026    9.2105026    37.223566 
Loop time of 22.3394 on 16 procs for 1000 steps with 1000 atoms

Performance: 3.868 ns/day, 6.205 hours/ns, 44.764 timesteps/s
94.7% CPU use with 16 MPI tasks x no OpenMP threads

MPI task timing breakdown:
Section |  min time  |  avg time  |  max time  |%varavg| %total
---------------------------------------------------------------
Pair    | 2.3287     | 2.4715     | 2.5591     |   3.9 | 11.06
Neigh   | 0.7776     | 0.81792    | 0.8525     |   2.3 |  3.66
Comm    | 0.83142    | 0.95063    | 1.1319     |   8.2 |  4.26
Output  | 12.937     | 13.259     | 18.026     |  33.8 | 59.35
Modify  | 0.063977   | 4.8325     | 5.154      |  56.0 | 21.63
Other   |            | 0.008282   |            |       |  0.04

Nlocal:    62.5 ave 68 max 56 min
Histogram: 1 0 1 2 3 3 1 2 1 2
Nghost:    1847.88 ave 1863 max 1836 min
Histogram: 1 4 2 3 0 1 1 0 1 3
Neighs:    0 ave 0 max 0 min
Histogram: 16 0 0 0 0 0 0 0 0 0
FullNghs:  18885.8 ave 20457 max 16803 min
Histogram: 1 0 1 2 3 3 0 3 1 2

Total # of neighbors = 302172
Ave neighs/atom = 302.172
Neighbor list builds = 1000
Dangerous builds not checked
Setting up Verlet run ...
  Unit style    : real
  Current step  : 12000
  Time step     : 1
Per MPI rank memory allocation (min/avg/max) = 4.577 | 4.578 | 4.58 Mbytes
Step Temp E_pair E_mol TotEng Press Volume Lx Ly Lz S/CPU 
   12000    287.34147   -10490.031            0   -9634.3775    2831.0447    781.35787    9.2105026    9.2105026    9.2105026            0 
   12100      294.566   -10508.269            0   -9631.1013   -10228.347    779.74275     9.204152     9.204152     9.204152    42.547158 
   12200    298.86207   -10517.186            0   -9627.2253    4632.8945    777.71278    9.1961577    9.1961577    9.1961577    46.043899 
   12300    297.71204   -10509.541            0   -9623.0054    16309.131    775.87745     9.188918     9.188918     9.188918    47.907972 
   12400     297.8831   -10507.043            0   -9619.9982    28369.703    774.94058     9.185218     9.185218     9.185218    34.276063 
   12500    303.04851   -10520.804            0   -9618.3774    16742.659    775.25544    9.1864618    9.1864618    9.1864618    43.965899 
   12600    307.90659   -10535.452            0   -9618.5587    8102.5317    776.77973    9.1924786    9.1924786    9.1924786     54.72102 
   12700    302.03964   -10516.449            0   -9617.0262    14137.809    778.78865    9.2003964    9.2003964    9.2003964    50.210102 
   12800     301.9211   -10516.026            0   -9616.9561    7375.1161    780.88592    9.2086478    9.2086478    9.2086478     49.44096 
   12900    290.86768   -10481.023            0   -9614.8689    201.70857    782.80678    9.2161922    9.2161922    9.2161922    55.006968 
   13000    304.49635   -10519.816            0   -9613.0778    3548.9515    784.48076     9.222757     9.222757     9.222757     49.48271 
Loop time of 21.4821 on 16 procs for 1000 steps with 1000 atoms

Performance: 4.022 ns/day, 5.967 hours/ns, 46.550 timesteps/s
94.7% CPU use with 16 MPI tasks x no OpenMP threads

MPI task timing breakdown:
Section |  min time  |  avg time  |  max time  |%varavg| %total
---------------------------------------------------------------
Pair    | 2.3155     | 2.4769     | 2.6459     |   6.1 | 11.53
Neigh   | 0.77021    | 0.81321    | 0.85565    |   2.8 |  3.79
Comm    | 0.81743    | 1.0174     | 1.2215     |  11.8 |  4.74
Output  | 11.137     | 11.512     | 17.081     |  42.4 | 53.59
Modify  | 0.084602   | 5.6541     | 6.029      |  60.5 | 26.32
Other   |            | 0.008322   |            |       |  0.04

Nlocal:    62.5 ave 69 max 55 min
Histogram: 2 0 0 1 3 3 3 2 0 2
Nghost:    1859.56 ave 1872 max 1847 min
Histogram: 2 2 0 1 3 2 0 1 4 1
Neighs:    0 ave 0 max 0 min
Histogram: 16 0 0 0 0 0 0 0 0 0
FullNghs:  18801.1 ave 20910 max 16445 min
Histogram: 2 0 0 1 5 1 4 1 1 1

Total # of neighbors = 300818
Ave neighs/atom = 300.818
Neighbor list builds = 1000
Dangerous builds not checked
Setting up Verlet run ...
  Unit style    : real
  Current step  : 13000
  Time step     : 1
Per MPI rank memory allocation (min/avg/max) = 4.577 | 4.578 | 4.58 Mbytes
Step Temp E_pair E_mol TotEng Press Volume Lx Ly Lz S/CPU 
   13000    304.49635   -10519.816            0   -9613.0778    3548.9515    784.48076     9.222757     9.222757     9.222757            0 
   13100    299.33098   -10501.921            0    -9610.564   -5492.9912    786.13945    9.2292526    9.2292526    9.2292526    45.114997 
   13200    291.70754   -10476.485            0   -9607.8294   -1883.8633    787.53891    9.2347258    9.2347258    9.2347258    46.763754 
   13300    301.05383   -10501.439            0   -9604.9518   -13263.308    788.59404    9.2388482    9.2388482    9.2388482     46.87673 
   13400    299.98018   -10496.683            0    -9603.393    3131.1547    789.47907    9.2423031    9.2423031    9.2423031    61.433843 
   13500    298.97492     -10490.3            0   -9600.0035    5626.2193    790.69823    9.2470581    9.2470581    9.2470581    42.248101 
   13600    296.45901   -10479.139            0   -9596.3343   -21132.226    791.82381    9.2514439    9.2514439    9.2514439    33.096918 
   13700    286.38406   -10446.247            0   -9593.4439   -8789.0941    792.08312    9.2524537    9.2524537    9.2524537    58.601659 
   13800    308.27999   -10508.603            0   -9590.5981   -15918.422    791.96556    9.2519959    9.2519959    9.2519959     46.70403 
   13900    298.71507   -10475.411            0   -9585.8882   -14499.608    791.02361    9.2483264    9.2483264    9.2483264    46.535899 
   14000    299.61173   -10472.729            0    -9580.536   -5935.7793    789.58987    9.2427354    9.2427354    9.2427354    41.394691 
Loop time of 21.9166 on 16 procs for 1000 steps with 1000 atoms

Performance: 3.942 ns/day, 6.088 hours/ns, 45.627 timesteps/s
94.7% CPU use with 16 MPI tasks x no OpenMP threads

MPI task timing breakdown:
Section |  min time  |  avg time  |  max time  |%varavg| %total
---------------------------------------------------------------
Pair    | 2.3371     | 2.4713     | 2.6071     |   5.3 | 11.28
Neigh   | 0.79134    | 0.82546    | 0.86428    |   2.6 |  3.77
Comm    | 0.75172    | 0.91257    | 1.0754     |  11.1 |  4.16
Output  | 11.88      | 12.241     | 17.61      |  39.6 | 55.85
Modify  | 0.088182   | 5.4579     | 5.8192     |  59.3 | 24.90
Other   |            | 0.00834    |            |       |  0.04

Nlocal:    62.5 ave 66 max 57 min
Histogram: 1 1 1 0 1 2 4 2 3 1
Nghost:    1853.75 ave 1871 max 1834 min
Histogram: 1 1 0 1 4 3 2 2 1 1
Neighs:    0 ave 0 max 0 min
Histogram: 16 0 0 0 0 0 0 0 0 0
FullNghs:  18686.5 ave 20023 max 16957 min
Histogram: 2 0 1 1 1 3 3 2 2 1

Total # of neighbors = 298984
Ave neighs/atom = 298.984
Neighbor list builds = 1000
Dangerous builds not checked
Setting up Verlet run ...
  Unit style    : real
  Current step  : 14000
  Time step     : 1
Per MPI rank memory allocation (min/avg/max) = 4.577 | 4.578 | 4.58 Mbytes
Step Temp E_pair E_mol TotEng Press Volume Lx Ly Lz S/CPU 
   14000    299.61173   -10472.729            0    -9580.536   -5935.7793    789.58987    9.2427354    9.2427354    9.2427354            0 
   14100    295.01674   -10450.854            0   -9572.3443    12007.075    787.70752    9.2353848    9.2353848    9.2353848    59.704492 
   14200    315.57695   -10504.571            0   -9564.8365    -10004.27    786.18312    9.2294234    9.2294234    9.2294234    53.010922 
   14300    298.13686   -10441.239            0   -9553.4385   -7789.7032    784.24829    9.2218459    9.2218459    9.2218459    41.649382 
   14400    303.18413   -10444.521            0   -9541.6904    12350.428    782.21007    9.2138499    9.2138499    9.2138499    57.674198 
   14500    322.31758   -10490.572            0   -9530.7653      7617.36    780.81322    9.2083621    9.2083621    9.2083621    56.054899 
   14600     310.2267   -10445.085            0    -9521.283   -882.04596    779.97165    9.2050526    9.2050526    9.2050526    55.523834 
   14700    312.63456   -10447.412            0   -9516.4399   -1777.5688      779.884    9.2047077    9.2047077    9.2047077    49.317241 
   14800    308.05162   -10431.085            0   -9513.7594    15555.806    780.45314    9.2069463    9.2069463    9.2069463    38.545202 
   14900    319.58839   -10464.223            0   -9512.5435    1763.0572      781.773    9.2121335    9.2121335    9.2121335    40.131943 
   15000    303.61838   -10418.705            0   -9514.5813    20395.618    783.84151    9.2202512    9.2202512    9.2202512    52.907538 
Loop time of 20.2851 on 16 procs for 1000 steps with 1000 atoms

Performance: 4.259 ns/day, 5.635 hours/ns, 49.297 timesteps/s
94.8% CPU use with 16 MPI tasks x no OpenMP threads

MPI task timing breakdown:
Section |  min time  |  avg time  |  max time  |%varavg| %total
---------------------------------------------------------------
Pair    | 2.3179     | 2.5243     | 2.6444     |   5.4 | 12.44
Neigh   | 0.77363    | 0.83026    | 0.88257    |   2.8 |  4.09
Comm    | 0.80667    | 0.9788     | 1.2423     |  11.1 |  4.83
Output  | 10.966     | 11.278     | 15.895     |  35.5 | 55.60
Modify  | 0.048245   | 4.6658     | 4.9771     |  55.2 | 23.00
Other   |            | 0.008413   |            |       |  0.04

Nlocal:    62.5 ave 69 max 57 min
Histogram: 2 0 3 0 3 4 2 1 0 1
Nghost:    1857.38 ave 1876 max 1831 min
Histogram: 1 1 1 2 1 2 0 2 2 4
Neighs:    0 ave 0 max 0 min
Histogram: 16 0 0 0 0 0 0 0 0 0
FullNghs:  18828.2 ave 21015 max 17019 min
Histogram: 2 0 3 1 2 4 3 0 0 1

Total # of neighbors = 301252
Ave neighs/atom = 301.252
Neighbor list builds = 1000
Dangerous builds not checked
Setting up Verlet run ...
  Unit style    : real
  Current step  : 15000
  Time step     : 1
Per MPI rank memory allocation (min/avg/max) = 4.577 | 4.578 | 4.58 Mbytes
Step Temp E_pair E_mol TotEng Press Volume Lx Ly Lz S/CPU 
   15000    303.61838   -10418.705            0   -9514.5813    20395.618    783.84151    9.2202512    9.2202512    9.2202512            0 
   15100    316.48614   -10462.691            0   -9520.2492   -2062.5655    786.83078    9.2319571    9.2319571    9.2319571    59.321288 
   15200    302.40185   -10430.562            0   -9530.0613   -2803.4825    790.13482    9.2448613    9.2448613    9.2448613     60.31799 
   15300    303.06601   -10446.045            0   -9543.5657   -6822.5558    793.06723    9.2562839    9.2562839    9.2562839    44.530972 
   15400     307.8932   -10477.654            0    -9560.801   -19818.596    795.19898    9.2645701    9.2645701    9.2645701    46.814825 
   15500    301.72974    -10474.41            0   -9575.9103   -19948.524     796.1406    9.2682255    9.2682255    9.2682255    49.790088 
   15600    300.66662   -10483.997            0   -9588.6627   -11652.707    795.91263    9.2673408    9.2673408    9.2673408    46.750598 
   15700    315.39092   -10535.982            0   -9596.8022   -22410.685    794.46254    9.2617092    9.2617092    9.2617092     58.82719 
   15800     288.5188   -10459.333            0   -9600.1732   -5944.0261    791.86462    9.2516028    9.2516028    9.2516028    40.904763 
   15900    302.42978   -10504.948            0   -9604.3637   -820.75895    789.03154    9.2405564    9.2405564    9.2405564     35.42121 
   16000     290.3808   -10471.163            0   -9606.4589    2415.8047     786.1989    9.2294852    9.2294852    9.2294852    49.826208 
Loop time of 20.8475 on 16 procs for 1000 steps with 1000 atoms

Performance: 4.144 ns/day, 5.791 hours/ns, 47.967 timesteps/s
94.7% CPU use with 16 MPI tasks x no OpenMP threads

MPI task timing breakdown:
Section |  min time  |  avg time  |  max time  |%varavg| %total
---------------------------------------------------------------
Pair    | 2.2522     | 2.4275     | 2.6052     |   5.3 | 11.64
Neigh   | 0.75984    | 0.81381    | 0.86659    |   2.9 |  3.90
Comm    | 0.76564    | 0.97583    | 1.2053     |  10.9 |  4.68
Output  | 11.77      | 12.073     | 16.568     |  33.4 | 57.91
Modify  | 0.053125   | 4.5487     | 4.8519     |  54.4 | 21.82
Other   |            | 0.008241   |            |       |  0.04

Nlocal:    62.5 ave 66 max 59 min
Histogram: 2 0 2 0 4 5 0 0 1 2
Nghost:    1856.56 ave 1866 max 1839 min
Histogram: 1 0 1 2 2 1 1 1 2 5
Neighs:    0 ave 0 max 0 min
Histogram: 16 0 0 0 0 0 0 0 0 0
FullNghs:  18760.9 ave 19899 max 17646 min
Histogram: 2 0 2 2 1 4 2 0 1 2

Total # of neighbors = 300174
Ave neighs/atom = 300.174
Neighbor list builds = 1000
Dangerous builds not checked
Setting up Verlet run ...
  Unit style    : real
  Current step  : 16000
  Time step     : 1
Per MPI rank memory allocation (min/avg/max) = 4.577 | 4.578 | 4.58 Mbytes
Step Temp E_pair E_mol TotEng Press Volume Lx Ly Lz S/CPU 
   16000     290.3808   -10471.163            0   -9606.4589    2415.8047     786.1989    9.2294852    9.2294852    9.2294852            0 
   16100    306.31776   -10520.876            0   -9608.7144    10857.859    783.25756     9.217961     9.217961     9.217961    36.783735 
   16200    299.64676   -10502.643            0   -9610.3465    7768.7443    781.03448    9.2092317    9.2092317    9.2092317    47.846031 
   16300    296.03645   -10493.077            0   -9611.5306    24135.715    779.67685    9.2038927    9.2038927    9.2038927    36.349821 
   16400     301.8277   -10511.901            0   -9613.1096    18650.235    779.80377    9.2043921    9.2043921    9.2043921    56.754382 
   16500    293.80091   -10490.147            0   -9615.2576    16684.863    781.25106    9.2100829    9.2100829    9.2100829    52.055937 
   16600    298.22538    -10506.67            0   -9618.6053   -3885.0179    783.71169    9.2197421    9.2197421    9.2197421    46.376116 
   16700    302.22567   -10520.942            0   -9620.9654   -10174.536    786.42762    9.2303801    9.2303801    9.2303801    55.396934 
   16800    292.79907   -10492.961            0   -9621.0551   -3930.3485    788.74994     9.239457     9.239457     9.239457    55.506061 
   16900    299.37567   -10512.827            0    -9621.337   -9369.9602    790.75667     9.247286     9.247286     9.247286    48.278875 
   17000    299.18377   -10512.963            0   -9622.0445   -4940.2385    792.61105    9.2545088    9.2545088    9.2545088    55.995016 
Loop time of 20.8629 on 16 procs for 1000 steps with 1000 atoms

Performance: 4.141 ns/day, 5.795 hours/ns, 47.932 timesteps/s
94.8% CPU use with 16 MPI tasks x no OpenMP threads

MPI task timing breakdown:
Section |  min time  |  avg time  |  max time  |%varavg| %total
---------------------------------------------------------------
Pair    | 2.1701     | 2.4089     | 2.5893     |   7.1 | 11.55
Neigh   | 0.74763    | 0.80302    | 0.84529    |   3.3 |  3.85
Comm    | 0.80795    | 1.0249     | 1.3191     |  13.7 |  4.91
Output  | 11.045     | 11.394     | 16.566     |  39.6 | 54.61
Modify  | 0.057208   | 5.2242     | 5.5723     |  58.4 | 25.04
Other   |            | 0.008259   |            |       |  0.04

Nlocal:    62.5 ave 67 max 56 min
Histogram: 1 0 1 2 2 1 2 3 2 2
Nghost:    1840.62 ave 1862 max 1819 min
Histogram: 1 1 1 3 2 2 3 1 1 1
Neighs:    0 ave 0 max 0 min
Histogram: 16 0 0 0 0 0 0 0 0 0
FullNghs:  18632 ave 20177 max 16709 min
Histogram: 1 0 1 2 2 2 4 2 1 1

Total # of neighbors = 298112
Ave neighs/atom = 298.112
Neighbor list builds = 1000
Dangerous builds not checked
Setting up Verlet run ...
  Unit style    : real
  Current step  : 17000
  Time step     : 1
Per MPI rank memory allocation (min/avg/max) = 4.577 | 4.578 | 4.58 Mbytes
Step Temp E_pair E_mol TotEng Press Volume Lx Ly Lz S/CPU 
   17000    299.18377   -10512.963            0   -9622.0445   -4940.2385    792.61105    9.2545088    9.2545088    9.2545088            0 
   17100    312.37835   -10553.216            0   -9623.0066   -15282.138    794.12726    9.2604062    9.2604062    9.2604062    39.514344 
   17200    303.88093   -10530.153            0   -9625.2477    4027.9937    794.75495    9.2628454    9.2628454    9.2628454    51.139108 
   17300    302.02409    -10528.83            0   -9629.4538   -10885.053    794.48813    9.2618087    9.2618087    9.2618087    39.562069 
   17400     303.0074   -10536.259            0   -9633.9551   -5057.5583    793.50574    9.2579897    9.2579897    9.2579897    50.437639 
   17500    306.04289   -10550.138            0   -9638.7941   -19320.576     791.9851     9.252072     9.252072     9.252072    54.069923 
   17600    292.68173   -10515.408            0   -9643.8522   -7569.5341    789.41858    9.2420671    9.2420671    9.2420671     51.37909 
   17700    294.57005   -10526.057            0   -9648.8781   -13056.899    786.38215    9.2302022    9.2302022    9.2302022    41.520774 
   17800    303.80043   -10559.006            0   -9654.3407    5714.3948    782.82021     9.216245     9.216245     9.216245     44.74441 
   17900    283.81496   -10501.453            0    -9656.301    21934.542     779.1333    9.2017534    9.2017534    9.2017534    38.778152 
   18000    289.30363   -10519.645            0   -9658.1486    15558.458    776.10054    9.1897986    9.1897986    9.1897986     48.29063 
Loop time of 22.0852 on 16 procs for 1000 steps with 1000 atoms

Performance: 3.912 ns/day, 6.135 hours/ns, 45.279 timesteps/s
94.7% CPU use with 16 MPI tasks x no OpenMP threads

MPI task timing breakdown:
Section |  min time  |  avg time  |  max time  |%varavg| %total
---------------------------------------------------------------
Pair    | 2.1737     | 2.4068     | 2.593      |   7.1 | 10.90
Neigh   | 0.75642    | 0.80671    | 0.86625    |   3.0 |  3.65
Comm    | 0.76924    | 1.0145     | 1.2986     |  13.4 |  4.59
Output  | 11.2       | 11.614     | 17.783     |  46.7 | 52.59
Modify  | 0.065326   | 6.2345     | 6.6503     |  63.8 | 28.23
Other   |            | 0.008294   |            |       |  0.04

Nlocal:    62.5 ave 69 max 53 min
Histogram: 1 0 0 0 3 5 3 1 2 1
Nghost:    1864.19 ave 1885 max 1838 min
Histogram: 1 1 3 1 0 1 2 4 0 3
Neighs:    0 ave 0 max 0 min
Histogram: 16 0 0 0 0 0 0 0 0 0
FullNghs:  19019 ave 20872 max 15947 min
Histogram: 1 0 0 0 4 2 3 3 1 2

Total # of neighbors = 304304
Ave neighs/atom = 304.304
Neighbor list builds = 1000
Dangerous builds not checked
Setting up Verlet run ...
  Unit style    : real
  Current step  : 18000
  Time step     : 1
Per MPI rank memory allocation (min/avg/max) = 4.577 | 4.578 | 4.58 Mbytes
Step Temp E_pair E_mol TotEng Press Volume Lx Ly Lz S/CPU 
   18000    289.30363   -10519.645            0   -9658.1486    15558.458    776.10054    9.1897986    9.1897986    9.1897986            0 
   18100    291.15558   -10526.186            0   -9659.1742    20417.168    774.20626    9.1823158    9.1823158    9.1823158    47.238393 
   18200    301.44778   -10557.051            0   -9659.3907    3765.8755     773.6759    9.1802186    9.1802186    9.1802186    57.711013 
   18300    303.11199   -10560.119            0   -9657.5029    15978.559    773.97489     9.181401     9.181401     9.181401    45.395762 
   18400    295.91316   -10536.377            0   -9655.1985    16861.154    774.93367    9.1851907    9.1851907    9.1851907     46.01825 
   18500    291.93669     -10521.2            0   -9651.8625    4937.6215    776.27977     9.190506     9.190506     9.190506    32.358488 
   18600    294.54863   -10521.307            0   -9644.1913   -8034.3663    778.00794     9.197321     9.197321     9.197321    53.484743 
   18700    294.23198   -10510.994            0   -9634.8217    1633.2095    779.65328       9.2038       9.2038       9.2038    40.958171 
   18800    299.16495   -10515.775            0   -9624.9124   -8684.2273    781.63211    9.2115801    9.2115801    9.2115801    57.072027 
   18900    303.36985   -10516.158            0   -9612.7746   -3366.6752    783.35248    9.2183333    9.2183333    9.2183333    47.740675 
   19000    296.76077   -10483.943            0   -9600.2398    4727.7044    784.76699    9.2238786    9.2238786    9.2238786    35.690862 
Loop time of 22.2759 on 16 procs for 1000 steps with 1000 atoms

Performance: 3.879 ns/day, 6.188 hours/ns, 44.892 timesteps/s
94.7% CPU use with 16 MPI tasks x no OpenMP threads

MPI task timing breakdown:
Section |  min time  |  avg time  |  max time  |%varavg| %total
---------------------------------------------------------------
Pair    | 2.2927     | 2.4868     | 2.724      |   7.6 | 11.16
Neigh   | 0.76163    | 0.81366    | 0.87354    |   3.3 |  3.65
Comm    | 0.70354    | 1.0001     | 1.2451     |  14.9 |  4.49
Output  | 12.097     | 12.463     | 17.907     |  39.8 | 55.95
Modify  | 0.059708   | 5.5038     | 5.8701     |  59.9 | 24.71
Other   |            | 0.008321   |            |       |  0.04

Nlocal:    62.5 ave 69 max 58 min
Histogram: 3 1 2 3 3 1 0 1 0 2
Nghost:    1845 ave 1870 max 1831 min
Histogram: 2 3 3 3 2 0 0 1 1 1
Neighs:    0 ave 0 max 0 min
Histogram: 16 0 0 0 0 0 0 0 0 0
FullNghs:  18798.5 ave 20893 max 17325 min
Histogram: 2 1 3 3 3 1 0 1 0 2

Total # of neighbors = 300776
Ave neighs/atom = 300.776
Neighbor list builds = 1000
Dangerous builds not checked
Setting up Verlet run ...
  Unit style    : real
  Current step  : 19000
  Time step     : 1
Per MPI rank memory allocation (min/avg/max) = 4.577 | 4.578 | 4.58 Mbytes
Step Temp E_pair E_mol TotEng Press Volume Lx Ly Lz S/CPU 
   19000    296.76077   -10483.943            0   -9600.2398    4727.7044    784.76699    9.2238786    9.2238786    9.2238786            0 
   19100    309.10885   -10511.505            0   -9591.0314   -12821.651    785.94873    9.2285062    9.2285062    9.2285062    57.396096 
   19200    291.95429   -10451.836            0    -9582.446   -5439.0438    786.55679    9.2308854    9.2308854    9.2308854     44.42725 
   19300    303.63696    -10481.12            0   -9576.9407    4532.3913    786.90948    9.2322649    9.2322649    9.2322649    47.985453 
   19400    298.03698   -10460.121            0   -9572.6176   -11134.378    787.13827    9.2331596    9.2331596    9.2331596    48.463546 
   19500    297.61405    -10455.55            0   -9569.3064    4247.7435    786.86624    9.2320958    9.2320958    9.2320958    38.741517 
   19600    298.73154   -10458.442            0   -9568.8705   -6379.7814    786.37083    9.2301579    9.2301579    9.2301579    44.549212 
   19700     306.0211   -10478.734            0   -9567.4555   -4528.0513    785.26059     9.225812     9.225812     9.225812    60.084781 
   19800    301.61701   -10465.891            0   -9567.7266    862.71747    783.72258    9.2197849    9.2197849    9.2197849    37.887365 
   19900    310.47402   -10493.688            0   -9569.1498    9611.5551     782.4953    9.2149697    9.2149697    9.2149697    55.117343 
   20000    311.43393   -10498.962            0   -9571.5649    13234.014    781.64498    9.2116306    9.2116306    9.2116306    30.652401 
Loop time of 22.3469 on 16 procs for 1000 steps with 1000 atoms

Performance: 3.866 ns/day, 6.207 hours/ns, 44.749 timesteps/s
94.7% CPU use with 16 MPI tasks x no OpenMP threads

MPI task timing breakdown:
Section |  min time  |  avg time  |  max time  |%varavg| %total
---------------------------------------------------------------
Pair    | 2.3044     | 2.5201     | 2.6604     |   6.2 | 11.28
Neigh   | 0.78586    | 0.8329     | 0.87415    |   2.7 |  3.73
Comm    | 0.80035    | 0.9603     | 1.2224     |  12.4 |  4.30
Output  | 12.763     | 13.091     | 17.971     |  34.8 | 58.58
Modify  | 0.053659   | 4.9339     | 5.2627     |  56.7 | 22.08
Other   |            | 0.00841    |            |       |  0.04

Nlocal:    62.5 ave 70 max 55 min
Histogram: 1 1 2 3 2 1 1 0 4 1
Nghost:    1866.62 ave 1887 max 1851 min
Histogram: 1 3 3 1 1 3 0 3 0 1
Neighs:    0 ave 0 max 0 min
Histogram: 16 0 0 0 0 0 0 0 0 0
FullNghs:  18889.5 ave 21468 max 16513 min
Histogram: 2 0 2 3 2 1 1 4 0 1

Total # of neighbors = 302232
Ave neighs/atom = 302.232
Neighbor list builds = 1000
Dangerous builds not checked
Setting up Verlet run ...
  Unit style    : real
  Current step  : 20000
  Time step     : 1
Per MPI rank memory allocation (min/avg/max) = 4.577 | 4.578 | 4.58 Mbytes
Step Temp E_pair E_mol TotEng Press Volume Lx Ly Lz S/CPU 
   20000    311.43393   -10498.962            0   -9571.5649    13234.014    781.64498    9.2116306    9.2116306    9.2116306            0 
   20100    298.23678   -10462.381            0   -9574.2823    12778.263    781.65475     9.211669     9.211669     9.211669    49.203045 
   20200    294.34859   -10455.702            0   -9579.1825   -10106.626    782.23301      9.21394      9.21394      9.21394    49.868074 
   20300    296.55332   -10468.468            0   -9585.3831   -15417.239    782.78079    9.2160903    9.2160903    9.2160903    51.210745 
   20400    301.61662   -10490.661            0   -9592.4979    4749.0566    782.93402    9.2166916    9.2166916    9.2166916    40.660519 
   20500     297.1652   -10485.237            0   -9600.3298   -6615.4838    782.78588    9.2161103    9.2161103    9.2161103    52.168792 
   20600    299.30244   -10504.509            0    -9613.237   -9080.5611    782.41658    9.2146607    9.2146607    9.2146607    37.166455 
   20700    298.70493   -10517.417            0   -9627.9246   -2991.6487    782.01511    9.2130844    9.2130844    9.2130844    44.480631 
   20800    290.70123   -10507.432            0   -9641.7734    5809.9277    781.39213    9.2106372    9.2106372    9.2106372    53.879864 
   20900    290.62762   -10520.704            0   -9655.2642    6549.5892    780.67025       9.2078       9.2078       9.2078    36.955149 
   21000    295.03788   -10543.226            0   -9664.6539    10749.985    779.63163    9.2037148    9.2037148    9.2037148    34.246108 
Loop time of 22.7874 on 16 procs for 1000 steps with 1000 atoms

Performance: 3.792 ns/day, 6.330 hours/ns, 43.884 timesteps/s
94.7% CPU use with 16 MPI tasks x no OpenMP threads

MPI task timing breakdown:
Section |  min time  |  avg time  |  max time  |%varavg| %total
---------------------------------------------------------------
Pair    | 2.2596     | 2.4674     | 2.6054     |   5.3 | 10.83
Neigh   | 0.76032    | 0.81427    | 0.87094    |   2.6 |  3.57
Comm    | 0.79911    | 0.99401    | 1.256      |  10.5 |  4.36
Output  | 12.905     | 13.255     | 18.442     |  36.8 | 58.17
Modify  | 0.061385   | 5.2489     | 5.5985     |  58.5 | 23.03
Other   |            | 0.008294   |            |       |  0.04

Nlocal:    62.5 ave 66 max 58 min
Histogram: 2 0 0 4 0 2 1 3 3 1
Nghost:    1868.62 ave 1885 max 1853 min
Histogram: 1 2 2 2 0 4 1 1 1 2
Neighs:    0 ave 0 max 0 min
Histogram: 16 0 0 0 0 0 0 0 0 0
FullNghs:  18924.5 ave 20004 max 17443 min
Histogram: 2 0 0 2 2 1 2 3 2 2

Total # of neighbors = 302792
Ave neighs/atom = 302.792
Neighbor list builds = 1000
Dangerous builds not checked
Setting up Verlet run ...
  Unit style    : real
  Current step  : 21000
  Time step     : 1
Per MPI rank memory allocation (min/avg/max) = 4.577 | 4.578 | 4.58 Mbytes
Step Temp E_pair E_mol TotEng Press Volume Lx Ly Lz S/CPU 
   21000    295.03788   -10543.226            0   -9664.6539    10749.985    779.63163    9.2037148    9.2037148    9.2037148            0 
   21100     298.5282   -10559.003            0    -9670.037    3165.6036    778.80881    9.2004758    9.2004758    9.2004758    39.185843 
   21200    300.44769   -10568.159            0   -9673.4772    4158.5296    778.01916    9.1973652    9.1973652    9.1973652    45.631809 
   21300    291.39172   -10542.281            0   -9674.5662   -2823.3285    777.37363    9.1948208    9.1948208    9.1948208    63.077676 
   21400     293.0491   -10545.659            0   -9673.0093    4933.0104    776.91168    9.1929991    9.1929991    9.1929991    42.174975 
   21500    292.60904   -10542.601            0   -9671.2616    6829.5545    777.07426    9.1936403    9.1936403    9.1936403    42.082906 
   21600    282.09993   -10507.648            0   -9667.6028    12866.796    777.68158    9.1960348    9.1960348    9.1960348    41.191487 
   21700    288.54003   -10523.712            0    -9664.489    15643.453    778.83849    9.2005926    9.2005926    9.2005926    44.709965 
   21800    298.46136   -10550.557            0   -9661.7896    13532.339      780.808    9.2083415    9.2083415    9.2083415    38.245238 
   21900    300.32655   -10551.285            0   -9656.9634    3588.3293    783.82676    9.2201934    9.2201934    9.2201934    53.437985 
   22000    298.47851   -10540.056            0   -9651.2381   -5073.5981    787.42233    9.2342701    9.2342701    9.2342701    46.550191 
Loop time of 22.3747 on 16 procs for 1000 steps with 1000 atoms

Performance: 3.862 ns/day, 6.215 hours/ns, 44.693 timesteps/s
94.7% CPU use with 16 MPI tasks x no OpenMP threads

MPI task timing breakdown:
Section |  min time  |  avg time  |  max time  |%varavg| %total
---------------------------------------------------------------
Pair    | 2.3193     | 2.5046     | 2.6744     |   7.6 | 11.19
Neigh   | 0.77026    | 0.82124    | 0.88735    |   3.5 |  3.67
Comm    | 0.77385    | 0.97648    | 1.212      |  15.2 |  4.36
Output  | 12.588     | 12.929     | 18.003     |  36.4 | 57.78
Modify  | 0.060554   | 5.1348     | 5.4763     |  57.8 | 22.95
Other   |            | 0.008377   |            |       |  0.04

Nlocal:    62.5 ave 67 max 58 min
Histogram: 1 0 2 3 2 3 2 1 1 1
Nghost:    1848.19 ave 1874 max 1816 min
Histogram: 1 2 1 1 0 4 1 2 2 2
Neighs:    0 ave 0 max 0 min
Histogram: 16 0 0 0 0 0 0 0 0 0
FullNghs:  18747.6 ave 20059 max 17253 min
Histogram: 1 1 2 2 1 1 3 2 1 2

Total # of neighbors = 299962
Ave neighs/atom = 299.962
Neighbor list builds = 1000
Dangerous builds not checked
Setting up Verlet run ...
  Unit style    : real
  Current step  : 22000
  Time step     : 1
Per MPI rank memory allocation (min/avg/max) = 4.577 | 4.578 | 4.58 Mbytes
Step Temp E_pair E_mol TotEng Press Volume Lx Ly Lz S/CPU 
   22000    298.47851   -10540.056            0   -9651.2381   -5073.5981    787.42233    9.2342701    9.2342701    9.2342701            0 
   22100    290.63973   -10507.968            0   -9642.4928   -10747.102    790.96474     9.248097     9.248097     9.248097      41.3974 
   22200    289.72341   -10496.285            0   -9633.5382   -15844.319    793.57447    9.2582569    9.2582569    9.2582569    49.882088 
   22300    287.27471   -10479.581            0   -9624.1259   -37193.937    794.78478    9.2629613    9.2629613    9.2629613    57.264449 
   22400    295.52617   -10495.274            0    -9615.248   -12294.516    794.34843    9.2612658    9.2612658    9.2612658    48.320625 
   22500    303.44331   -10510.002            0   -9606.3991   -7564.7503    793.07519    9.2563149    9.2563149    9.2563149    46.230794 
   22600     300.7714   -10495.066            0   -9599.4202   -4224.2249    790.92945    9.2479594    9.2479594    9.2479594    47.048109 
   22700    306.54084   -10506.028            0   -9593.2022   -7382.0454    788.06642    9.2367873    9.2367873    9.2367873    53.810453 
   22800    297.65417   -10475.767            0   -9589.4037    1828.7583    785.13831    9.2253331    9.2253331    9.2253331    39.651928 
   22900    293.12625   -10458.915            0   -9586.0355    264.42894     782.3587    9.2144335    9.2144335    9.2144335    55.068162 
   23000    311.75172   -10514.003            0   -9585.6598   -1055.7877    779.82535     9.204477     9.204477     9.204477    44.865791 
Loop time of 20.9498 on 16 procs for 1000 steps with 1000 atoms

Performance: 4.124 ns/day, 5.819 hours/ns, 47.733 timesteps/s
94.7% CPU use with 16 MPI tasks x no OpenMP threads

MPI task timing breakdown:
Section |  min time  |  avg time  |  max time  |%varavg| %total
---------------------------------------------------------------
Pair    | 2.2936     | 2.444      | 2.6176     |   5.9 | 11.67
Neigh   | 0.77371    | 0.81671    | 0.8688     |   3.0 |  3.90
Comm    | 0.734      | 0.94263    | 1.1327     |  12.2 |  4.50
Output  | 11.146     | 11.494     | 16.657     |  39.3 | 54.86
Modify  | 0.080294   | 5.2445     | 5.592      |  58.2 | 25.03
Other   |            | 0.00829    |            |       |  0.04

Nlocal:    62.5 ave 66 max 57 min
Histogram: 1 1 0 3 0 3 0 3 3 2
Nghost:    1858.06 ave 1889 max 1831 min
Histogram: 1 1 3 2 3 1 2 0 1 2
Neighs:    0 ave 0 max 0 min
Histogram: 16 0 0 0 0 0 0 0 0 0
FullNghs:  18923.5 ave 20131 max 17203 min
Histogram: 2 0 1 2 1 2 0 2 4 2

Total # of neighbors = 302776
Ave neighs/atom = 302.776
Neighbor list builds = 1000
Dangerous builds not checked
Setting up Verlet run ...
  Unit style    : real
  Current step  : 23000
  Time step     : 1
Per MPI rank memory allocation (min/avg/max) = 4.577 | 4.578 | 4.58 Mbytes
Step Temp E_pair E_mol TotEng Press Volume Lx Ly Lz S/CPU 
   23000    311.75172   -10514.003            0   -9585.6598   -1055.7877    779.82535     9.204477     9.204477     9.204477            0 
   23100    302.99949   -10486.553            0   -9584.2722    11760.384    777.61098    9.1957565    9.1957565    9.1957565    47.343532 
   23200    299.63316   -10477.337            0   -9585.0805   -503.98075    776.32983    9.1907036    9.1907036    9.1907036    47.174013 
   23300    297.83377   -10474.226            0    -9587.328    28380.369    775.76321     9.188467     9.188467     9.188467    35.490403 
   23400    297.49983   -10476.354            0   -9590.4507    12620.512    776.54904    9.1915685    9.1915685    9.1915685    58.755909 
   23500    301.35053    -10492.32            0   -9594.9496    15114.465    778.84958    9.2006363    9.2006363    9.2006363    47.545255 
   23600    302.68091   -10499.346            0   -9598.0137     19557.58    782.35348     9.214413     9.214413     9.214413    39.372308 
   23700    291.28012   -10470.602            0   -9603.2199    -4962.456    786.76731    9.2317089    9.2317089    9.2317089     30.59641 
   23800    294.27962   -10481.862            0   -9605.5473   -9318.4053    791.05699    9.2484565    9.2484565    9.2484565    37.660508 
   23900    296.67539   -10492.142            0   -9608.6932   -20633.918    794.31185    9.2611236    9.2611236    9.2611236     43.06047 
   24000    304.46807   -10519.025            0   -9612.3715   -18459.433    796.00972    9.2677176    9.2677176    9.2677176    48.951616 
Loop time of 23.6836 on 16 procs for 1000 steps with 1000 atoms

Performance: 3.648 ns/day, 6.579 hours/ns, 42.223 timesteps/s
94.6% CPU use with 16 MPI tasks x no OpenMP threads

MPI task timing breakdown:
Section |  min time  |  avg time  |  max time  |%varavg| %total
---------------------------------------------------------------
Pair    | 2.2914     | 2.4708     | 2.6306     |   6.8 | 10.43
Neigh   | 0.77459    | 0.81421    | 0.87272    |   3.2 |  3.44
Comm    | 0.75955    | 0.9774     | 1.197      |  13.6 |  4.13
Output  | 12.482     | 12.912     | 19.322     |  46.1 | 54.52
Modify  | 0.090715   | 6.5007     | 6.9312     |  64.9 | 27.45
Other   |            | 0.008415   |            |       |  0.04

Nlocal:    62.5 ave 70 max 58 min
Histogram: 3 2 0 5 1 3 0 0 0 2
Nghost:    1838.12 ave 1857 max 1818 min
Histogram: 2 1 0 4 1 2 0 4 0 2
Neighs:    0 ave 0 max 0 min
Histogram: 16 0 0 0 0 0 0 0 0 0
FullNghs:  18529.2 ave 20868 max 16950 min
Histogram: 3 2 0 4 2 1 2 0 0 2

Total # of neighbors = 296468
Ave neighs/atom = 296.468
Neighbor list builds = 1000
Dangerous builds not checked
Setting up Verlet run ...
  Unit style    : real
  Current step  : 24000
  Time step     : 1
Per MPI rank memory allocation (min/avg/max) = 4.577 | 4.578 | 4.58 Mbytes
Step Temp E_pair E_mol TotEng Press Volume Lx Ly Lz S/CPU 
   24000    304.46807   -10519.025            0   -9612.3715   -18459.433    796.00972    9.2677176    9.2677176    9.2677176            0 
   24100    295.37002   -10496.158            0   -9616.5969   -13182.647     795.7734    9.2668003    9.2668003    9.2668003    54.227667 
   24200    295.73725   -10504.467            0   -9623.8119   -7862.7372    793.93348    9.2596529    9.2596529    9.2596529     45.53333 
   24300    294.38698   -10509.099            0    -9632.465   -31393.683    791.17053     9.248899     9.248899     9.248899    49.914854 
   24400    290.64777   -10505.964            0   -9640.4644   -3833.9451     787.4715    9.2344624    9.2344624    9.2344624    29.627591 
   24500    297.25052   -10537.188            0   -9652.0265     2328.713    783.67298    9.2195903    9.2195903    9.2195903    46.807124 
   24600    292.59082   -10532.125            0   -9660.8392    25040.563    780.11852    9.2056303    9.2056303    9.2056303    43.993086 
   24700    291.01552   -10536.199            0   -9669.6048     14597.36    777.48255    9.1952502    9.1952502    9.1952502    36.357458 
   24800    293.56133   -10551.481            0   -9677.3057    9077.0424    775.46022    9.1872706    9.1872706    9.1872706    44.303566 
   24900    309.55867   -10606.907            0   -9685.0937    13233.459    774.32267     9.182776     9.182776     9.182776    33.900618 
   25000    296.34195   -10571.814            0   -9689.3582   -241.55848      774.148    9.1820855    9.1820855    9.1820855    55.339527 
Loop time of 23.5929 on 16 procs for 1000 steps with 1000 atoms

Performance: 3.662 ns/day, 6.554 hours/ns, 42.386 timesteps/s
94.6% CPU use with 16 MPI tasks x no OpenMP threads

MPI task timing breakdown:
Section |  min time  |  avg time  |  max time  |%varavg| %total
---------------------------------------------------------------
Pair    | 2.2557     | 2.4184     | 2.5583     |   6.3 | 10.25
Neigh   | 0.75571    | 0.80277    | 0.84968    |   3.3 |  3.40
Comm    | 0.85144    | 1.0286     | 1.2391     |  12.4 |  4.36
Output  | 13.039     | 13.433     | 19.274     |  41.1 | 56.94
Modify  | 0.060751   | 5.9021     | 6.2957     |  62.1 | 25.02
Other   |            | 0.008251   |            |       |  0.03

Nlocal:    62.5 ave 70 max 56 min
Histogram: 2 1 1 2 2 4 1 0 2 1
Nghost:    1870 ave 1891 max 1841 min
Histogram: 1 0 0 2 1 3 5 2 0 2
Neighs:    0 ave 0 max 0 min
Histogram: 16 0 0 0 0 0 0 0 0 0
FullNghs:  19063 ave 21517 max 16893 min
Histogram: 1 1 2 2 4 1 2 0 2 1

Total # of neighbors = 305008
Ave neighs/atom = 305.008
Neighbor list builds = 1000
Dangerous builds not checked
Setting up Verlet run ...
  Unit style    : real
  Current step  : 25000
  Time step     : 1
Per MPI rank memory allocation (min/avg/max) = 4.577 | 4.578 | 4.58 Mbytes
Step Temp E_pair E_mol TotEng Press Volume Lx Ly Lz S/CPU 
   25000    296.34195   -10571.814            0   -9689.3582   -241.55848      774.148    9.1820855    9.1820855    9.1820855            0 
   25100    290.75035   -10559.209            0   -9693.4042    7897.2936    774.67871    9.1841832    9.1841832    9.1841832    53.665703 
   25200    285.49792   -10545.974            0   -9695.8103    16389.296    775.39113    9.1869978    9.1869978    9.1869978    27.394028 
   25300    292.90845   -10569.502            0   -9697.2705    3506.8671    776.54997    9.1915722    9.1915722    9.1915722    40.674165 
   25400     295.8746   -10576.866            0   -9695.8017   -10203.514    778.04992    9.1974864    9.1974864    9.1974864    44.766447 
   25500    288.81982   -10551.218            0   -9691.1614   -2661.0795    779.27217       9.2023       9.2023       9.2023    49.204129 
   25600    298.60774   -10574.006            0   -9684.8028    2694.1742    780.17693      9.20586      9.20586      9.20586    57.854077 
   25700    286.60529   -10525.263            0   -9671.8016   -2618.2831    781.13256    9.2096172    9.2096172    9.2096172    57.366858 
   25800    299.01267   -10546.816            0   -9656.4074   -9772.4797    781.86806    9.2125068    9.2125068    9.2125068    40.333381 
   25900    299.97028   -10533.627            0   -9640.3666     2395.191    782.18272    9.2137425    9.2137425    9.2137425    38.162644 
   26000    299.40716    -10518.34            0   -9626.7565    8140.7169    782.51827    9.2150599    9.2150599    9.2150599    44.812224 
Loop time of 23.0415 on 16 procs for 1000 steps with 1000 atoms

Performance: 3.750 ns/day, 6.400 hours/ns, 43.400 timesteps/s
94.7% CPU use with 16 MPI tasks x no OpenMP threads

MPI task timing breakdown:
Section |  min time  |  avg time  |  max time  |%varavg| %total
---------------------------------------------------------------
Pair    | 2.276      | 2.4697     | 2.6093     |   5.5 | 10.72
Neigh   | 0.76703    | 0.81181    | 0.85151    |   2.8 |  3.52
Comm    | 0.8225     | 0.9985     | 1.2369     |  11.0 |  4.33
Output  | 12.614     | 12.997     | 18.686     |  40.7 | 56.40
Modify  | 0.066758   | 5.7567     | 6.1397     |  61.2 | 24.98
Other   |            | 0.008282   |            |       |  0.04

Nlocal:    62.5 ave 69 max 54 min
Histogram: 1 0 2 1 1 2 4 1 3 1
Nghost:    1862.44 ave 1886 max 1846 min
Histogram: 4 1 2 2 0 2 1 1 2 1
Neighs:    0 ave 0 max 0 min
Histogram: 16 0 0 0 0 0 0 0 0 0
FullNghs:  18883.2 ave 20791 max 16308 min
Histogram: 1 1 1 1 1 3 3 2 1 2

Total # of neighbors = 302132
Ave neighs/atom = 302.132
Neighbor list builds = 1000
Dangerous builds not checked
Setting up Verlet run ...
  Unit style    : real
  Current step  : 26000
  Time step     : 1
Per MPI rank memory allocation (min/avg/max) = 4.577 | 4.578 | 4.58 Mbytes
Step Temp E_pair E_mol TotEng Press Volume Lx Ly Lz S/CPU 
   26000    299.40716    -10518.34            0   -9626.7565    8140.7169    782.51827    9.2150599    9.2150599    9.2150599            0 
   26100    305.45111   -10527.324            0   -9617.7423    13159.178     782.9528    9.2167653    9.2167653    9.2167653    39.157285 
   26200    301.52429   -10509.802            0   -9611.9143    9575.0171    783.80069    9.2200912    9.2200912    9.2200912    44.987789 
   26300    296.06527   -10488.807            0   -9607.1747    5322.5305    785.09274    9.2251546    9.2251546    9.2251546    37.924377 
   26400    293.16351   -10476.538            0   -9603.5471   -7263.6389    786.42119     9.230355     9.230355     9.230355    43.607157 
   26500    299.00541   -10492.316            0   -9601.9288   -11537.028    787.31752    9.2338604    9.2338604    9.2338604    36.306869 
   26600     308.3841   -10517.223            0   -9598.9075   -4313.8919    787.76887    9.2356246    9.2356246    9.2356246    48.462866 
   26700    305.64147   -10506.933            0   -9596.7848   -1559.4074    787.82676    9.2358508    9.2358508    9.2358508    54.641898 
   26800    302.65609   -10496.844            0   -9595.5861    7195.7974     787.8074    9.2357752    9.2357752    9.2357752     44.54682 
   26900    287.44363   -10448.939            0   -9592.9808   -9545.7598    787.77403    9.2356448    9.2356448    9.2356448    52.315857 
   27000    311.91793   -10519.985            0   -9591.1469   -15148.122    787.36325    9.2340392    9.2340392    9.2340392    39.360628 
Loop time of 23.0514 on 16 procs for 1000 steps with 1000 atoms

Performance: 3.748 ns/day, 6.403 hours/ns, 43.381 timesteps/s
94.6% CPU use with 16 MPI tasks x no OpenMP threads

MPI task timing breakdown:
Section |  min time  |  avg time  |  max time  |%varavg| %total
---------------------------------------------------------------
Pair    | 2.2598     | 2.4387     | 2.5531     |   4.9 | 10.58
Neigh   | 0.76947    | 0.81321    | 0.86956    |   2.7 |  3.53
Comm    | 0.84209    | 0.98065    | 1.2001     |   9.9 |  4.25
Output  | 12.568     | 12.958     | 18.747     |  41.5 | 56.21
Modify  | 0.06245    | 5.8528     | 6.2425     |  61.8 | 25.39
Other   |            | 0.008289   |            |       |  0.04

Nlocal:    62.5 ave 67 max 56 min
Histogram: 1 0 0 1 2 5 2 1 3 1
Nghost:    1850.88 ave 1864 max 1833 min
Histogram: 1 0 0 0 5 3 2 3 1 1
Neighs:    0 ave 0 max 0 min
Histogram: 16 0 0 0 0 0 0 0 0 0
FullNghs:  18760.8 ave 20059 max 16827 min
Histogram: 1 0 0 1 2 5 2 2 2 1

Total # of neighbors = 300172
Ave neighs/atom = 300.172
Neighbor list builds = 1000
Dangerous builds not checked
Setting up Verlet run ...
  Unit style    : real
  Current step  : 27000
  Time step     : 1
Per MPI rank memory allocation (min/avg/max) = 4.577 | 4.578 | 4.58 Mbytes
Step Temp E_pair E_mol TotEng Press Volume Lx Ly Lz S/CPU 
   27000    311.91793   -10519.985            0   -9591.1469   -15148.122    787.36325    9.2340392    9.2340392    9.2340392            0 
   27100    296.74268   -10469.877            0   -9586.2281    -14367.95    786.43616    9.2304135    9.2304135    9.2304135    51.039669 
   27200    305.60347   -10493.836            0   -9583.8006   -6405.7833    784.72008    9.2236948    9.2236948    9.2236948    51.030834 
   27300    309.34377    -10502.09            0   -9580.9169   -2274.9199    782.14706    9.2136025    9.2136025    9.2136025    44.962499 
   27400      291.663   -10446.608            0   -9578.0857    833.54221    778.95564    9.2010539    9.2010539    9.2010539    43.086374 
   27500    297.56397    -10462.89            0   -9576.7954    14039.554    776.02707    9.1895086    9.1895086    9.1895086    45.704407 
   27600    311.85931   -10506.432            0   -9577.7686    21278.314    774.11412    9.1819516    9.1819516    9.1819516    46.701988 
   27700    296.81789   -10460.579            0   -9576.7059   -3443.4008    773.15389    9.1781534    9.1781534    9.1781534    44.051658 
   27800    291.45631   -10446.717            0   -9578.8099    25985.536     772.7162    9.1764212    9.1764212    9.1764212    57.501815 
   27900    307.68467   -10499.994            0   -9583.7611   -543.85804    773.26488    9.1785926    9.1785926    9.1785926    37.230347 
   28000    302.55375   -10491.927            0   -9590.9737    4736.6933    774.41861    9.1831553    9.1831553    9.1831553    34.836346 
Loop time of 22.3588 on 16 procs for 1000 steps with 1000 atoms

Performance: 3.864 ns/day, 6.211 hours/ns, 44.725 timesteps/s
[...]
  666700    301.28203   -11480.563            0   -10583.396    -35113.42    732.10824     9.012773     9.012773     9.012773     53.66798 
  666800    291.40986   -11451.668            0   -10583.899   -21448.403    730.52236    9.0062605    9.0062605    9.0062605    36.081038 
  666900    301.44599   -11481.164            0    -10583.51   -12527.287    728.00946    8.9959218    8.9959218    8.9959218     44.94984 
  667000    298.88464   -11471.012            0   -10580.984    6176.3679    725.12526    8.9840262    8.9840262    8.9840262    51.683992 
  667100    290.88513   -11441.625            0   -10575.419    15890.802    722.88479    8.9747638    8.9747638    8.9747638    45.211733 
  667200    302.77002   -11471.109            0   -10569.511    25460.066    721.63522    8.9695896    8.9695896    8.9695896    44.955274 
  667300    300.46667   -11455.248            0   -10560.509    28874.087    721.75194    8.9700732    8.9700732    8.9700732    35.573826 
  667400    294.72324   -11427.714            0   -10550.079    14699.814    723.07558    8.9755533    8.9755533    8.9755533    40.890166 
  667500    290.69551   -11402.324            0   -10536.682    5702.7195    725.24825    8.9845341    8.9845341    8.9845341    35.936026 
  667600    300.35418   -11418.072            0   -10523.669    1550.4829    727.85992    8.9953059    8.9953059    8.9953059    43.487602 
  667700    302.36848   -11412.007            0   -10511.605   -9429.0905    730.24442    9.0051181    9.0051181    9.0051181    45.915822 
  667800    310.70767   -11427.434            0     -10502.2   -15462.758    731.77452    9.0114033    9.0114033    9.0114033    42.962723 
  667900    310.54607   -11419.571            0   -10494.817   -17608.318    732.36148     9.013812     9.013812     9.013812    44.531685 
  668000    292.74349   -11360.067            0   -10488.326   -3733.1431    731.94244    9.0120926    9.0120926    9.0120926     50.07888 
  668100    298.35341   -11375.279            0   -10486.833   -16191.814    730.78643    9.0073456    9.0073456    9.0073456    50.090616 
  668200    307.65608   -11402.894            0   -10486.747    -14004.09     729.2124     9.000874     9.000874     9.000874    42.569728 
  668300    307.26737   -11402.229            0   -10487.239    3518.6982    727.44483    8.9935956    8.9935956    8.9935956    47.181117 
  668400    305.55535   -11399.484            0   -10489.592    2739.8272    725.86604    8.9870845    8.9870845    8.9870845    42.903211 
  668500    300.02629   -11386.118            0    -10492.69     8712.117    724.70249    8.9822799    8.9822799    8.9822799    46.495219 
  668600    301.65361   -11397.078            0   -10498.805    10179.348    724.14516    8.9799767    8.9799767    8.9799767    45.578957 
  668700    306.97155   -11421.279            0    -10507.17    16435.929    724.24401    8.9803853    8.9803853    8.9803853    41.038192 
  668800    302.13083   -11415.313            0   -10515.619    13344.796    725.00639    8.9835353    8.9835353    8.9835353    48.303473 
  668900    291.45593   -11393.679            0   -10525.773    7140.9467    726.18849    8.9884151    8.9884151    8.9884151    39.140537 
  669000    295.80949   -11415.428            0   -10534.558   -6459.5164    727.49835    8.9938161    8.9938161    8.9938161    38.969784 
  669100    303.12286   -11446.593            0   -10543.944   -15079.911    728.29813    8.9971107    8.9971107    8.9971107    38.905392 
  669200      287.967   -11405.872            0   -10548.356     442.0738    728.35822    8.9973582    8.9973582    8.9973582    36.939633 
  669300    307.38081   -11469.224            0   -10553.896    -9533.405    727.85965    8.9953047    8.9953047    8.9953047    48.249137 
  669400    297.98091    -11444.04            0   -10556.704   -14048.732    727.01857    8.9918386    8.9918386    8.9918386    40.066613 
  669500    295.05717   -11437.263            0   -10558.633   -6088.3277     725.7582    8.9866394    8.9866394    8.9866394    44.733776 
  669600     294.1447   -11434.406            0   -10558.494   -2008.9929    724.27066    8.9804955    8.9804955    8.9804955    43.612781 
  669700    298.99574   -11449.706            0   -10559.348    28700.484    723.28983    8.9764398    8.9764398    8.9764398    42.885579 
  669800    288.68848   -11417.491            0   -10557.826   -2729.3451    723.12975    8.9757775    8.9757775    8.9757775    49.072603 
  669900    308.50983   -11477.493            0   -10558.803    14624.936    723.59424    8.9776989    8.9776989    8.9776989    45.823206 
  670000    300.04637    -11450.88            0   -10557.393   -5645.1025    724.60959    8.9818961    8.9818961    8.9818961     39.01278 
  670100    299.44021   -11447.488            0   -10555.807    3750.0837     725.9183    8.9873002    8.9873002    8.9873002    46.346126 
  670200    306.89012   -11467.807            0   -10553.941   -11574.095    727.27254    8.9928855    8.9928855    8.9928855    34.948573 
  670300    303.65064   -11454.607            0   -10550.388   -2824.5407    728.47928    8.9978566    8.9978566    8.9978566    44.290592 
  670400     294.0151   -11421.275            0   -10545.748   -4077.3574    729.18584    9.0007647    9.0007647    9.0007647    49.897026 
  670500    297.92501    -11428.62            0    -10541.45   -3841.6377    729.36681    9.0015092    9.0015092    9.0015092    37.222433 
  670600    301.78042   -11434.814            0   -10536.163   -22878.364    728.93327    8.9997254    8.9997254    8.9997254    36.138679 
  670700    307.84146   -11445.628            0   -10528.929    5753.2361    727.88929    8.9954269    8.9954269    8.9954269    48.167685 
  670800    297.88191   -11407.109            0   -10520.067    -15836.92     726.8876    8.9912986    8.9912986    8.9912986    40.716436 
  670900    303.83719   -11413.244            0   -10508.469    10628.015     726.0228    8.9877314    8.9877314    8.9877314    42.943523 
  671000    310.88324   -11420.653            0   -10494.896    18846.811    725.42592    8.9852677    8.9852677    8.9852677    40.196775 
  671100    303.41304   -11382.938            0   -10479.425    14538.495    725.63766    8.9861419    8.9861419    8.9861419    44.327575 
  671200    304.62302    -11372.94            0   -10465.825    261.57159    726.71141    8.9905721    8.9905721    8.9905721    36.080445 
  671300    308.97455   -11374.179            0   -10454.105   -3473.6532    728.17587    8.9966073    8.9966073    8.9966073    51.029729 
  671400    313.40558   -11382.655            0   -10449.387   -8834.8024    729.87252    9.0035892    9.0035892    9.0035892    40.138598 
  671500    301.94425   -11345.695            0   -10446.556   -11455.954     731.3596    9.0096998    9.0096998    9.0096998    36.880672 
  671600    308.42364   -11365.728            0   -10447.295   -13083.749    732.15399    9.0129607    9.0129607    9.0129607    44.820677 
  671700    313.53578   -11383.956            0     -10450.3   -17643.253    731.94829    9.0121166    9.0121166    9.0121166    42.563297 
  671800    303.39647   -11358.888            0   -10455.426   -9942.3264     730.7682    9.0072707    9.0072707    9.0072707    47.192348 
  671900    297.66632   -11346.439            0    -10460.04   -5666.8523    729.03152    9.0001297    9.0001297    9.0001297    40.501783 
  672000    312.92598    -11400.02            0    -10468.18    7601.9408    727.26638    8.9928601    8.9928601    8.9928601    44.941396 
  672100    308.49388   -11391.845            0   -10473.202    9055.1613    725.91693    8.9872945    8.9872945    8.9872945     46.31434 
  672200    295.59057   -11359.113            0   -10478.895    26282.427    725.07806    8.9838313    8.9838313    8.9838313    35.046393 
  672300    301.63223   -11384.251            0   -10486.042    20648.778    725.21522    8.9843977    8.9843977    8.9843977     48.63022 
  672400    310.75561   -11419.104            0   -10493.727    7912.7626    726.15423    8.9882737    8.9882737    8.9882737     36.85455 
  672500    293.12852   -11371.903            0   -10499.016   -4215.2877    727.50934    8.9938614    8.9938614    8.9938614    38.418068 
  672600    293.67729   -11377.745            0   -10503.224   -8572.6301    728.77752    8.9990843    8.9990843    8.9990843    41.106854 
  672700    295.09669   -11386.641            0   -10507.893   -17648.801    729.40618    9.0016712    9.0016712    9.0016712    40.834851 
  672800    293.15979    -11385.52            0   -10512.541    834.32623    729.33451    9.0013764    9.0013764    9.0013764    45.576504 
  672900    301.43277   -11414.897            0   -10517.282   -6615.6112    728.92643    8.9996972    8.9996972    8.9996972    38.377749 
  673000     309.9477   -11444.721            0    -10521.75    7819.5113    728.01016    8.9959247    8.9959247    8.9959247    42.479572 
  673100    309.12909   -11445.233            0   -10524.699   -6498.9701    726.68318    8.9904556    8.9904556    8.9904556    43.760803 
  673200    301.43137    -11426.74            0   -10529.129   -8330.4708    725.26444     8.984601     8.984601     8.984601    40.935703 
  673300    294.12041   -11407.444            0   -10531.604    22549.168    724.00476    8.9793963    8.9793963    8.9793963    38.570637 
  673400    307.52012   -11455.027            0   -10539.285    12939.623    723.69809    8.9781283    8.9781283    8.9781283    36.115322 
  673500    291.91412   -11412.773            0   -10543.502    15002.918    724.32596     8.980724     8.980724     8.980724    50.674524 
  673600    299.37404    -11440.53            0   -10549.045    7680.2113    725.90366    8.9872398    8.9872398    8.9872398    38.920754 
  673700    290.77353   -11419.915            0   -10554.041   -7106.6832    727.75363     8.994868     8.994868     8.994868     38.06164 
  673800    292.23709   -11428.843            0   -10558.611   -8151.0944    729.27887    9.0011475    9.0011475    9.0011475    48.094196 
  673900    297.93679   -11449.675            0    -10562.47   -19371.474     730.1912    9.0048994    9.0048994    9.0048994    34.387938 
  674000    290.27935   -11430.668            0   -10566.265    -7278.644    730.34305    9.0055235    9.0055235    9.0055235    40.308792 
  674100     289.9292   -11431.745            0   -10568.385   -10268.546     729.6186     9.002545     9.002545     9.002545    38.026934 
  674200     300.0867   -11464.681            0   -10571.074   -9517.7006    727.99695    8.9958703    8.9958703    8.9958703    29.215335 
  674300     280.7154   -11405.609            0   -10569.686    6665.1694     725.9746    8.9875325    8.9875325    8.9875325    48.791926 
  674400    293.51576   -11445.473            0   -10571.434    1784.3068     723.9029    8.9789752    8.9789752    8.9789752     37.62916 
  674500    298.54278   -11457.651            0   -10568.642     19547.79    722.45576     8.972988     8.972988     8.972988    44.871706 
  674600    303.67688   -11468.304            0   -10564.006    16372.535    722.07543    8.9714131    8.9714131    8.9714131    41.676864 
  674700    305.02434    -11467.61            0   -10559.299    18394.263    722.80065    8.9744156    8.9744156    8.9744156    46.286577 
  674800    296.18558    -11433.59            0     -10551.6    4623.1385    724.50467    8.9814626    8.9814626    8.9814626    41.524219 
  674900    301.98487   -11445.242            0   -10545.982    5190.8351    726.78657     8.990882     8.990882     8.990882    36.822671 
  675000    295.05204   -11416.703            0   -10538.088   -18270.104    729.07835    9.0003224    9.0003224    9.0003224    40.570109 
  675100    301.69208   -11429.157            0   -10530.769   -19429.511    730.58653    9.0065242    9.0065242    9.0065242    39.926599 
  675200    301.19984   -11420.391            0   -10523.469    -12401.95    731.11876    9.0087107    9.0087107    9.0087107    44.852555 
  675300    302.42705   -11416.868            0   -10516.292   -23494.475    730.73215    9.0071226    9.0071226    9.0071226    48.435795 
  675400    298.42696   -11399.106            0   -10510.441   -8686.2945    729.39277    9.0016161    9.0016161    9.0016161    31.635627 
  675500    299.41951   -11397.955            0   -10506.335    9071.4973    727.49313    8.9937946    8.9937946    8.9937946    46.225263 
  675600    303.93895   -11406.146            0   -10501.068    4117.0187     725.4481    8.9853593    8.9853593    8.9853593    31.850409 
  675700    301.81609    -11395.07            0   -10496.314    30850.274    723.93898    8.9791244    8.9791244    8.9791244    39.096514 
  675800    307.63693   -11409.693            0   -10493.603    13484.094    723.64644    8.9779147    8.9779147    8.9779147    48.431365 
  675900     306.8848   -11405.862            0   -10492.011    14450.621    724.19022     8.980163     8.980163     8.980163    35.998198 
  676000     317.3828   -11439.923            0   -10494.811    12693.693    725.41575    8.9852257    8.9852257    8.9852257    40.215464 
  676100    307.44492   -11411.398            0    -10495.88    11523.976    727.17985    8.9925034    8.9925034    8.9925034    40.781724 
  676200    315.85626   -11442.913            0   -10502.347   -6813.7163     729.1962    9.0008073    9.0008073    9.0008073    46.308173 
  676300     316.5226   -11453.174            0   -10510.624   -20458.145    730.92469    9.0079136    9.0079136    9.0079136     44.79473 
  676400    301.72813   -11417.694            0   -10519.199   -7174.7549    731.69879    9.0110925    9.0110925    9.0110925    36.995935 
  676500    301.33339   -11428.497            0   -10531.178   -31336.991    731.42494    9.0099681    9.0099681    9.0099681    35.184785 
  676600    296.87583   -11427.789            0   -10543.744   -7124.0025    729.71151    9.0029271    9.0029271    9.0029271    45.974984 
  676700    286.05301   -11406.511            0   -10554.694   -1861.7943    727.15554    8.9924032    8.9924032    8.9924032    52.763765 
  676800    297.73902    -11450.18            0   -10563.564    5780.3522    724.34686    8.9808104    8.9808104    8.9808104    45.683725 
  676900    297.65787   -11456.076            0   -10569.702    24674.046    721.99621     8.971085     8.971085     8.971085    43.737099 
  677000    294.94177   -11451.107            0    -10572.82    16359.007    720.69543    8.9656942    8.9656942    8.9656942    40.664126 
  677100    296.63375   -11458.944            0   -10575.619    42555.961    720.78674    8.9660729    8.9660729    8.9660729    39.867793 
  677200    290.50012   -11441.555            0   -10576.495     25018.82    722.54584    8.9733609    8.9733609    8.9733609    48.381927 
  677300    295.65984   -11457.461            0   -10577.037   -1884.3032    725.60365    8.9860015    8.9860015    8.9860015    34.102932 
  677400    287.26981   -11429.921            0    -10574.48   -23071.243    729.27838    9.0011454    9.0011454    9.0011454    37.007121 
  677500    289.22067   -11430.846            0   -10569.596   -16953.707    732.35046    9.0137668    9.0137668    9.0137668    45.324146 
  677600    294.13263   -11440.508            0   -10564.632   -31443.714    733.92628    9.0202272    9.0202272    9.0202272    41.841571 
  677700    290.83884   -11426.144            0   -10560.076   -32179.949    733.42923    9.0181905    9.0181905    9.0181905    39.571961 
  677800    292.35162    -11424.95            0   -10554.377   -13636.783    731.10336    9.0086475    9.0086475    9.0086475    41.338793 
  677900    306.86446   -11464.012            0   -10550.222    4763.0635    727.66543    8.9945046    8.9945046    8.9945046    43.578146 
  678000    298.51878   -11432.428            0    -10543.49     10634.66    723.92378    8.9790615    8.9790615    8.9790615    46.291151 
  678100    298.56935   -11428.379            0    -10539.29    31273.635    720.65837    8.9655405    8.9655405    8.9655405    39.062695 
  678200    311.00423   -11460.387            0    -10534.27    30308.919    719.02747    8.9587722    8.9587722    8.9587722    44.891415 
  678300      293.715    -11405.17            0   -10530.536    33706.926    719.56282    8.9609951    8.9609951    8.9609951    49.106956 
  678400    303.21971   -11435.599            0   -10532.663    20309.041    722.17593    8.9718293    8.9718293    8.9718293    43.894801 
  678500    306.27348   -11444.631            0   -10532.601   -3117.1791    726.21538     8.988526     8.988526     8.988526    49.088596 
  678600    301.49363   -11430.445            0   -10532.649    -11288.55    730.50033      9.00617      9.00617      9.00617    42.836133 
  678700    293.59317   -11405.114            0   -10530.844   -40868.149    733.94162    9.0202901    9.0202901    9.0202901    42.523949 
  678800    299.29094   -11420.844            0   -10529.606   -54479.464    735.52617    9.0267769    9.0267769    9.0267769    49.448067 
  678900    288.64396    -11388.42            0   -10528.888   -36922.866    734.48604    9.0225199    9.0225199    9.0225199     40.63364 
  679000    303.93453   -11435.704            0   -10530.639   -32105.552    731.04503    9.0084079    9.0084079    9.0084079    48.314728 
  679100    301.35648   -11426.993            0   -10529.605   -1109.4233    726.40087    8.9892913    8.9892913    8.9892913    22.891692 
  679200    304.76928   -11436.407            0   -10528.856    32097.258    721.84599    8.9704628    8.9704628    8.9704628    23.903598 
  679300    303.25646   -11432.096            0    -10529.05    27425.847    718.90992     8.958284     8.958284     8.958284     44.75818 
  679400    304.09893   -11436.363            0   -10530.808    28326.996    718.06489    8.9547727    8.9547727    8.9547727    47.069798 
  679500    292.65712   -11405.357            0   -10533.874    29130.303    719.37243    8.9602047    8.9602047    8.9602047    41.396219 
  679600      287.666   -11394.591            0   -10537.971    23832.433    722.54266    8.9733477    8.9733477    8.9733477    47.192884 
  679700    309.36291    -11466.81            0   -10545.581   -4450.7248    726.98045    8.9916814    8.9916814    8.9916814    43.263731 
  679800    298.88418   -11437.708            0   -10547.682   -13907.051    731.07426     9.008528     9.008528     9.008528    41.895372 
  679900     298.6827   -11441.044            0   -10551.618    -46362.57    733.79667    9.0196962    9.0196962    9.0196962    49.936103 
  680000    303.39146   -11461.025            0   -10557.578   -32092.691    734.32695    9.0218684    9.0218684    9.0218684    37.975094 
Loop time of 2167.86 on 16 procs for 100000 steps with 1000 atoms

Performance: 3.985 ns/day, 6.022 hours/ns, 46.128 timesteps/s
94.7% CPU use with 16 MPI tasks x no OpenMP threads

MPI task timing breakdown:
Section |  min time  |  avg time  |  max time  |%varavg| %total
---------------------------------------------------------------
Pair    | 229.3      | 250.67     | 265.17     |  59.9 | 11.56
Neigh   | 79.848     | 83.886     | 88.189     |  25.2 |  3.87
Comm    | 85.356     | 100.58     | 123.74     | 103.7 |  4.64
Output  | 1164.8     | 1200.1     | 1725       | 391.2 | 55.36
Modify  | 6.8025     | 531.74     | 567.16     | 587.8 | 24.53
Other   |            | 0.846      |            |       |  0.04

Nlocal:    62.5 ave 66 max 57 min
Histogram: 1 0 0 5 0 1 2 2 3 2
Nghost:    1947.62 ave 1971 max 1934 min
Histogram: 1 3 1 5 3 1 0 1 0 1
Neighs:    0 ave 0 max 0 min
Histogram: 16 0 0 0 0 0 0 0 0 0
FullNghs:  20018.2 ave 21131 max 18176 min
Histogram: 1 0 0 5 0 1 2 0 4 3

Total # of neighbors = 320292
Ave neighs/atom = 320.292
Neighbor list builds = 100000
Dangerous builds not checked
Total wall time: 4:06:43
