LAMMPS (16 Mar 2018)
Reading data file ...
  orthogonal box = (-4.71559 -4.71559 -4.71559) to (4.71559 4.71559 4.71559)
  2 by 2 by 4 MPI processor grid
  reading atoms ...
  1000 atoms
Reading potential file /home/fs01/ajm529/lammps-16Mar18/potentials/sw_potentials/AG/eps2.23.sw with DATE: 2008-01-29
Neighbor list info ...
  update every 1 steps, delay 0 steps, check no
  max neighbors/atom: 2000, page size: 100000
  master list distance cutoff = 3.836
  ghost atom cutoff = 3.836
  binsize = 1.918, bins = 5 5 5
  1 neighbor lists, perpetual/occasional/extra = 1 0 0
  (1) pair sw, perpetual
      attributes: full, newton on
      pair build: full/bin/atomonly
      stencil: full/bin/3d
      bin: standard
Setting up Verlet run ...
  Unit style    : real
  Current step  : 0
  Time step     : 1
Per MPI rank memory allocation (min/avg/max) = 3.518 | 3.519 | 3.521 Mbytes
Step Temp E_pair E_mol TotEng Press Volume Lx Ly Lz S/CPU 
       0          300   -10066.381            0   -9173.0319   -29990.996    838.87596    9.4311775    9.4311775    9.4311775            0 
     100    328.21179   -10156.546            0   -9179.1872   -56211.886    837.18632    9.4248412    9.4248412    9.4248412    49.761568 
     200    328.20983   -10172.916            0   -9195.5627   -44016.957    831.58567    9.4037772    9.4037772    9.4037772    41.859093 
     300     334.7335   -10214.441            0   -9217.6617   -18086.051    823.02054    9.3713802    9.3713802    9.3713802    39.334156 
     400    322.65363   -10203.489            0    -9242.682   -22214.519    813.44037    9.3348764    9.3348764    9.3348764    35.180845 
     500    341.49606   -10281.486            0   -9264.5691    11486.737    803.54349    9.2968637    9.2968637    9.2968637    47.291012 
     600    338.05185   -10288.461            0   -9281.8003    2220.4095    794.98303    9.2637314    9.2637314    9.2637314    37.555206 
     700    330.51336   -10282.785            0   -9298.5731    15570.567     788.2239    9.2374025    9.2374025    9.2374025    44.472689 
     800     332.5406   -10309.653            0   -9319.4038    29527.786    783.88369    9.2204166    9.2204166    9.2204166    46.421444 
     900    330.23229   -10324.424            0   -9341.0482    15650.226    781.91182    9.2126787    9.2126787    9.2126787    43.504222 
    1000    317.14791   -10308.086            0   -9363.6741    16610.425    781.40055    9.2106703    9.2106703    9.2106703    45.933114 
Loop time of 23.4391 on 16 procs for 1000 steps with 1000 atoms

Performance: 3.686 ns/day, 6.511 hours/ns, 42.664 timesteps/s
94.2% CPU use with 16 MPI tasks x no OpenMP threads

MPI task timing breakdown:
Section |  min time  |  avg time  |  max time  |%varavg| %total
---------------------------------------------------------------
Pair    | 1.6199     | 1.7041     | 1.837      |   4.1 |  7.27
Neigh   | 0.66948    | 0.69528    | 0.74263    |   2.2 |  2.97
Comm    | 0.6163     | 0.79664    | 0.88464    |   7.8 |  3.40
Output  | 13.617     | 14.034     | 20.164     |  42.2 | 59.88
Modify  | 0.070284   | 6.2001     | 6.6168     |  63.6 | 26.45
Other   |            | 0.008729   |            |       |  0.04

Nlocal:    62.5 ave 67 max 57 min
Histogram: 1 0 2 3 0 3 0 2 1 4
Nghost:    1868.5 ave 1896 max 1837 min
Histogram: 1 1 1 2 4 1 1 2 0 3
Neighs:    0 ave 0 max 0 min
Histogram: 16 0 0 0 0 0 0 0 0 0
FullNghs:  18883.1 ave 20396 max 17042 min
Histogram: 1 1 2 2 3 0 1 2 0 4

Total # of neighbors = 302130
Ave neighs/atom = 302.13
Neighbor list builds = 1000
Dangerous builds not checked
Setting up Verlet run ...
  Unit style    : real
  Current step  : 1000
  Time step     : 1
Per MPI rank memory allocation (min/avg/max) = 3.52 | 4.512 | 4.579 Mbytes
Step Temp E_pair E_mol TotEng Press Volume Lx Ly Lz S/CPU 
    1000    317.14791   -10308.086            0   -9363.6741    16610.425    781.40055    9.2106703    9.2106703    9.2106703            0 
    1100    320.73711    -10341.88            0   -9386.7794     693.4219    781.84429    9.2124135    9.2124135    9.2124135    42.520863 
    1200     322.9615    -10372.16            0   -9410.4355    14612.414     782.7051    9.2157932    9.2157932    9.2157932    48.188637 
    1300    316.01976   -10371.872            0    -9430.819    11344.833    784.43711    9.2225859    9.2225859    9.2225859    36.935203 
    1400    303.03152   -10353.248            0   -9450.8724    1941.4892    786.55896    9.2308939    9.2308939    9.2308939    34.033016 
    1500    315.12967   -10409.972            0   -9471.5695   -10533.287    788.64588    9.2390506    9.2390506    9.2390506    47.200305 
    1600    325.23634    -10459.75            0   -9491.2517    1952.1108    790.33602    9.2456459    9.2456459    9.2456459    44.965946 
    1700    301.00137   -10404.213            0   -9507.8821   -6782.7864    791.81131    9.2513952    9.2513952    9.2513952    39.583588 
    1800    302.43448   -10425.399            0   -9524.8009   -23182.883    792.81057    9.2552853    9.2552853    9.2552853    47.082078 
    1900    302.17027    -10439.78            0   -9539.9687   -22453.972    792.99827    9.2560156    9.2560156    9.2560156    35.272973 
    2000    300.20919   -10447.521            0    -9553.549   -21012.858    792.33219    9.2534234    9.2534234    9.2534234    42.655885 
Loop time of 24.2449 on 16 procs for 1000 steps with 1000 atoms

Performance: 3.564 ns/day, 6.735 hours/ns, 41.246 timesteps/s
94.3% CPU use with 16 MPI tasks x no OpenMP threads

MPI task timing breakdown:
Section |  min time  |  avg time  |  max time  |%varavg| %total
---------------------------------------------------------------
Pair    | 1.6973     | 1.8234     | 1.9276     |   4.5 |  7.52
Neigh   | 0.67628    | 0.7171     | 0.76266    |   2.4 |  2.96
Comm    | 0.71865    | 0.85601    | 1.0219     |   8.4 |  3.53
Output  | 14.585     | 14.972     | 20.723     |  38.4 | 61.76
Modify  | 0.11367    | 5.8671     | 6.2559     |  61.3 | 24.20
Other   |            | 0.008825   |            |       |  0.04

Nlocal:    62.5 ave 67 max 59 min
Histogram: 2 2 4 1 0 2 1 1 0 3
Nghost:    1849.06 ave 1860 max 1840 min
Histogram: 1 1 3 1 2 4 1 1 0 2
Neighs:    0 ave 0 max 0 min
Histogram: 16 0 0 0 0 0 0 0 0 0
FullNghs:  18631 ave 20233 max 17531 min
Histogram: 2 6 0 1 2 0 1 1 2 1

Total # of neighbors = 298096
Ave neighs/atom = 298.096
Neighbor list builds = 1000
Dangerous builds not checked
Setting up Verlet run ...
  Unit style    : real
  Current step  : 2000
  Time step     : 1
Per MPI rank memory allocation (min/avg/max) = 4.577 | 4.578 | 4.58 Mbytes
Step Temp E_pair E_mol TotEng Press Volume Lx Ly Lz S/CPU 
    2000    300.20919   -10447.521            0    -9553.549   -21012.858    792.33219    9.2534234    9.2534234    9.2534234            0 
    2100    302.77433   -10467.998            0   -9566.3873   -13432.241    790.85499    9.2476692    9.2476692    9.2476692    41.476448 
    2200    299.21041    -10470.21            0   -9579.2128   -14953.193    788.71106    9.2393051    9.2393051    9.2393051    51.819492 
    2300    306.40692   -10505.484            0   -9593.0565    7474.6604    786.25621    9.2297095    9.2297095    9.2297095     42.68984 
    2400    293.55914   -10477.268            0   -9603.0988    2846.6784    784.15567    9.2214829    9.2214829    9.2214829    37.299232 
    2500     299.1339   -10505.187            0   -9614.4175   -4112.2922    782.43498    9.2147329    9.2147329    9.2147329    43.594929 
    2600    297.61756    -10509.75            0    -9623.496    14642.253     781.0515    9.2092986    9.2092986    9.2092986    42.738089 
    2700    299.07814   -10525.102            0   -9634.4986    4659.7506    780.27568    9.2062484    9.2062484    9.2062484    45.151001 
    2800    305.00953     -10552.1            0   -9643.8335   -3004.7396    779.92766    9.2048795    9.2048795    9.2048795    46.631094 
    2900    298.19602   -10540.208            0   -9652.2316   -4543.2651    779.32321    9.2025009    9.2025009    9.2025009    42.833792 
    3000    292.38088   -10530.436            0   -9659.7758    8318.8011    778.51321    9.1993116    9.1993116    9.1993116    44.082987 
Loop time of 22.9603 on 16 procs for 1000 steps with 1000 atoms

Performance: 3.763 ns/day, 6.378 hours/ns, 43.553 timesteps/s
94.3% CPU use with 16 MPI tasks x no OpenMP threads

MPI task timing breakdown:
Section |  min time  |  avg time  |  max time  |%varavg| %total
---------------------------------------------------------------
Pair    | 1.6177     | 1.7674     | 1.9235     |   5.1 |  7.70
Neigh   | 0.65969    | 0.69563    | 0.74352    |   2.8 |  3.03
Comm    | 0.64101    | 0.84465    | 1.0303     |   9.7 |  3.68
Output  | 13.004     | 13.43      | 19.588     |  43.4 | 58.49
Modify  | 0.055123   | 6.2142     | 6.6396     |  63.8 | 27.07
Other   |            | 0.008736   |            |       |  0.04

Nlocal:    62.5 ave 68 max 56 min
Histogram: 1 1 0 1 4 3 3 0 0 3
Nghost:    1860.38 ave 1873 max 1848 min
Histogram: 1 0 2 2 4 2 1 2 0 2
Neighs:    0 ave 0 max 0 min
Histogram: 16 0 0 0 0 0 0 0 0 0
FullNghs:  18956.2 ave 20788 max 16957 min
Histogram: 1 1 0 4 3 1 3 0 1 2

Total # of neighbors = 303300
Ave neighs/atom = 303.3
Neighbor list builds = 1000
Dangerous builds not checked
Setting up Verlet run ...
  Unit style    : real
  Current step  : 3000
  Time step     : 1
Per MPI rank memory allocation (min/avg/max) = 4.577 | 4.578 | 4.58 Mbytes
Step Temp E_pair E_mol TotEng Press Volume Lx Ly Lz S/CPU 
    3000    292.38088   -10530.436            0   -9659.7758    8318.8011    778.51321    9.1993116    9.1993116    9.1993116            0 
    3100    302.71161    -10569.16            0   -9667.7369   -2502.8329    777.73052    9.1962277    9.1962277    9.1962277    43.359398 
    3200    291.82594   -10543.209            0   -9674.2014    7537.0241    776.94883    9.1931456    9.1931456    9.1931456    37.551174 
    3300    291.46513   -10547.426            0   -9679.4924   -768.29804    776.61988     9.191848     9.191848     9.191848    36.859427 
    3400    303.62411   -10588.515            0   -9684.3742   -11005.271    776.46601    9.1912409    9.1912409    9.1912409    28.350154 
    3500    293.64734   -10561.118            0   -9686.6868   -921.46495    775.97945    9.1893207    9.1893207    9.1893207     44.17799 
    3600    296.10678   -10568.835            0   -9687.0796    7515.4061     775.4614    9.1872753    9.1872753    9.1872753    36.457678 
    3700    293.45717   -10560.307            0   -9686.4414    7460.5264    775.14992     9.186045     9.186045     9.186045    41.078682 
    3800    291.38464   -10552.754            0   -9685.0607   -2364.1865    775.38097    9.1869576    9.1869576    9.1869576    35.062017 
    3900    294.29856   -10557.828            0   -9681.4576    -3707.882    775.79782    9.1886037    9.1886037    9.1886037    41.608329 
    4000    295.47926   -10553.775            0   -9673.8886   -2649.4894    775.81231    9.1886609    9.1886609    9.1886609    39.583948 
Loop time of 26.4332 on 16 procs for 1000 steps with 1000 atoms

Performance: 3.269 ns/day, 7.343 hours/ns, 37.831 timesteps/s
94.2% CPU use with 16 MPI tasks x no OpenMP threads

MPI task timing breakdown:
Section |  min time  |  avg time  |  max time  |%varavg| %total
---------------------------------------------------------------
Pair    | 1.762      | 1.8769     | 2.0258     |   5.0 |  7.10
Neigh   | 0.69186    | 0.72461    | 0.7839     |   2.9 |  2.74
Comm    | 0.6469     | 0.85598    | 0.99762    |   9.8 |  3.24
Output  | 15.845     | 16.29      | 22.9       |  42.3 | 61.63
Modify  | 0.067932   | 6.6756     | 7.1204     |  66.0 | 25.25
Other   |            | 0.009824   |            |       |  0.04

Nlocal:    62.5 ave 69 max 57 min
Histogram: 3 0 2 0 1 5 3 1 0 1
Nghost:    1872.19 ave 1905 max 1843 min
Histogram: 1 0 3 1 4 4 1 1 0 1
Neighs:    0 ave 0 max 0 min
Histogram: 16 0 0 0 0 0 0 0 0 0
FullNghs:  19014.4 ave 21345 max 17380 min
Histogram: 3 2 0 2 2 3 3 0 0 1

Total # of neighbors = 304230
Ave neighs/atom = 304.23
Neighbor list builds = 1000
Dangerous builds not checked
Setting up Verlet run ...
  Unit style    : real
  Current step  : 4000
  Time step     : 1
Per MPI rank memory allocation (min/avg/max) = 4.577 | 4.579 | 4.58 Mbytes
Step Temp E_pair E_mol TotEng Press Volume Lx Ly Lz S/CPU 
    4000    295.47926   -10553.775            0   -9673.8886   -2649.4894    775.81231    9.1886609    9.1886609    9.1886609            0 
    4100    288.01989   -10523.748            0   -9666.0742    897.56877    775.40304    9.1870448    9.1870448    9.1870448    49.248477 
    4200    290.22308   -10519.215            0     -9654.98    10968.936    774.86191    9.1849072    9.1849072    9.1849072    46.446655 
    4300    296.55354   -10528.896            0   -9645.8103    10649.569    774.43758    9.1832302    9.1832302    9.1832302    35.842405 
    4400    296.74972   -10518.865            0   -9635.1945    5151.0195    774.62367    9.1839657    9.1839657    9.1839657    45.986273 
    4500    307.12998   -10541.476            0   -9626.8955    20525.237    775.19689    9.1862305    9.1862305    9.1862305     45.78737 
    4600    300.63862    -10514.12            0   -9618.8698    13552.255    776.72738    9.1922721    9.1922721    9.1922721    34.621526 
    4700    303.99927   -10516.398            0   -9611.1404    13814.698    779.04374    9.2014008    9.2014008    9.2014008     44.98567 
    4800    294.08212   -10480.282            0   -9604.5558    268.52608    781.49271    9.2110324    9.2110324    9.2110324    37.765914 
    4900    299.18925   -10488.777            0   -9597.8425   -3975.9385    783.47044     9.218796     9.218796     9.218796    49.854982 
    5000    302.82385   -10494.132            0   -9592.3738   -3849.2084    785.03504    9.2249286    9.2249286    9.2249286    38.532473 
Loop time of 23.6923 on 16 procs for 1000 steps with 1000 atoms

Performance: 3.647 ns/day, 6.581 hours/ns, 42.208 timesteps/s
94.3% CPU use with 16 MPI tasks x no OpenMP threads

MPI task timing breakdown:
Section |  min time  |  avg time  |  max time  |%varavg| %total
---------------------------------------------------------------
Pair    | 1.7685     | 1.8809     | 2.0179     |   5.3 |  7.94
Neigh   | 0.69062    | 0.7266     | 0.772      |   2.7 |  3.07
Comm    | 0.64274    | 0.81877    | 0.95561    |  10.6 |  3.46
Output  | 14.186     | 14.562     | 20.142     |  37.8 | 61.46
Modify  | 0.12189    | 5.6948     | 6.0725     |  60.3 | 24.04
Other   |            | 0.008907   |            |       |  0.04

Nlocal:    62.5 ave 67 max 57 min
Histogram: 1 0 2 0 2 3 3 1 1 3
Nghost:    1858.81 ave 1877 max 1838 min
Histogram: 2 0 2 0 1 3 4 2 1 1
Neighs:    0 ave 0 max 0 min
Histogram: 16 0 0 0 0 0 0 0 0 0
FullNghs:  18792.9 ave 20217 max 17149 min
Histogram: 1 2 0 1 3 1 4 1 2 1

Total # of neighbors = 300686
Ave neighs/atom = 300.686
Neighbor list builds = 1000
Dangerous builds not checked
Setting up Verlet run ...
  Unit style    : real
  Current step  : 5000
  Time step     : 1
Per MPI rank memory allocation (min/avg/max) = 4.578 | 4.579 | 4.58 Mbytes
Step Temp E_pair E_mol TotEng Press Volume Lx Ly Lz S/CPU 
    5000    302.82385   -10494.132            0   -9592.3738   -3849.2084    785.03504    9.2249286    9.2249286    9.2249286            0 
    5100    291.21129   -10452.254            0   -9585.0766    2537.6611     786.2857    9.2298248    9.2298248    9.2298248     41.04929 
    5200     294.0734   -10455.294            0   -9579.5934    8027.6411    787.41888    9.2342567    9.2342567    9.2342567    49.526014 
    5300    299.78039   -10465.572            0   -9572.8769   -9331.9283    788.34655    9.2378816    9.2378816    9.2378816    36.384623 
    5400    299.07896   -10456.313            0   -9565.7071    237.20407    788.75679    9.2394837    9.2394837    9.2394837    49.468193 
    5500    291.08308   -10425.829            0   -9559.0338    6349.4362    789.12446    9.2409191    9.2409191    9.2409191    50.405211 
    5600    305.89414   -10465.203            0   -9554.3021   -7269.3565    789.60973    9.2428129    9.2428129    9.2428129    39.260835 
    5700    312.97078   -10481.376            0   -9549.4021   -14094.403    789.85799    9.2437815    9.2437815    9.2437815    44.445721 
    5800    299.49795   -10435.929            0   -9544.0757   -5161.8597    789.73131    9.2432873    9.2432873    9.2432873    36.242322 
    5900    307.20606   -10455.624            0   -9540.8168    6096.0279    789.18881    9.2411703    9.2411703    9.2411703    45.459852 
    6000    309.33754   -10459.354            0   -9538.1994   -614.13018    788.82925    9.2397666    9.2397666    9.2397666    44.767098 
Loop time of 23.1989 on 16 procs for 1000 steps with 1000 atoms

Performance: 3.724 ns/day, 6.444 hours/ns, 43.105 timesteps/s
94.3% CPU use with 16 MPI tasks x no OpenMP threads

MPI task timing breakdown:
Section |  min time  |  avg time  |  max time  |%varavg| %total
---------------------------------------------------------------
Pair    | 1.6887     | 1.7928     | 1.9154     |   4.2 |  7.73
Neigh   | 0.68259    | 0.71113    | 0.74884    |   2.6 |  3.07
Comm    | 0.65887    | 0.82132    | 0.95508    |   8.5 |  3.54
Output  | 13.703     | 14.087     | 19.767     |  39.1 | 60.72
Modify  | 0.096889   | 5.7779     | 6.1634     |  61.0 | 24.91
Other   |            | 0.008995   |            |       |  0.04

Nlocal:    62.5 ave 67 max 57 min
Histogram: 1 1 2 0 0 3 1 4 3 1
Nghost:    1844.25 ave 1861 max 1836 min
Histogram: 4 5 1 1 0 1 2 0 0 2
Neighs:    0 ave 0 max 0 min
Histogram: 16 0 0 0 0 0 0 0 0 0
FullNghs:  18709.1 ave 20125 max 17159 min
Histogram: 2 2 0 0 2 2 3 2 2 1

Total # of neighbors = 299346
Ave neighs/atom = 299.346
Neighbor list builds = 1000
Dangerous builds not checked
Setting up Verlet run ...
  Unit style    : real
  Current step  : 6000
  Time step     : 1
Per MPI rank memory allocation (min/avg/max) = 4.578 | 4.579 | 4.58 Mbytes
Step Temp E_pair E_mol TotEng Press Volume Lx Ly Lz S/CPU 
    6000    309.33754   -10459.354            0   -9538.1994   -614.13018    788.82925    9.2397666    9.2397666    9.2397666            0 
    6100     309.4595     -10459.3            0   -9537.7827   -687.12626    788.61232    9.2389196    9.2389196    9.2389196    37.527265 
    6200    303.66745    -10442.59            0   -9538.3204   -7019.7381    788.17049    9.2371938    9.2371938    9.2371938    45.699497 
    6300    310.84619   -10466.241            0   -9540.5937   -7236.6635    787.21024     9.233441     9.233441     9.233441     55.61196 
    6400     311.6119   -10474.662            0   -9546.7354   -8289.6214    785.69894    9.2275284    9.2275284    9.2275284    42.944301 
    6500    311.96861   -10485.907            0   -9556.9178    6614.7969    784.19086    9.2216208    9.2216208    9.2216208    47.176877 
    6600    313.65092   -10507.902            0   -9573.9032    325.08018    783.18884    9.2176914    9.2176914    9.2176914    38.143227 
    6700    306.21422   -10504.853            0   -9592.9998    8769.2824    782.52261    9.2150769    9.2150769    9.2150769    45.085029 
    6800    291.77351   -10477.681            0    -9608.829    4640.9484    782.13007    9.2135358    9.2135358    9.2135358    49.572036 
    6900    296.53751    -10503.57            0   -9620.5322    3199.4144    781.94094    9.2127931    9.2127931    9.2127931    37.528344 
    7000    291.20497   -10494.361            0   -9627.2019   -5587.5668    781.77739    9.2121507    9.2121507    9.2121507    42.788965 
Loop time of 22.9581 on 16 procs for 1000 steps with 1000 atoms

Performance: 3.763 ns/day, 6.377 hours/ns, 43.558 timesteps/s
94.3% CPU use with 16 MPI tasks x no OpenMP threads

MPI task timing breakdown:
Section |  min time  |  avg time  |  max time  |%varavg| %total
---------------------------------------------------------------
Pair    | 1.6901     | 1.796      | 1.916      |   4.7 |  7.82
Neigh   | 0.66992    | 0.7105     | 0.75087    |   2.6 |  3.09
Comm    | 0.69383    | 0.8371     | 0.98263    |   8.7 |  3.65
Output  | 13.268     | 13.662     | 19.515     |  40.9 | 59.51
Modify  | 0.087454   | 5.9435     | 6.3388     |  62.0 | 25.89
Other   |            | 0.008758   |            |       |  0.04

Nlocal:    62.5 ave 69 max 59 min
Histogram: 3 1 5 0 1 2 1 1 1 1
Nghost:    1864.88 ave 1875 max 1855 min
Histogram: 4 2 0 0 2 1 0 1 2 4
Neighs:    0 ave 0 max 0 min
Histogram: 16 0 0 0 0 0 0 0 0 0
FullNghs:  18878.2 ave 20756 max 17800 min
Histogram: 3 4 2 0 1 2 1 2 0 1

Total # of neighbors = 302052
Ave neighs/atom = 302.052
Neighbor list builds = 1000
Dangerous builds not checked
Setting up Verlet run ...
  Unit style    : real
  Current step  : 7000
  Time step     : 1
Per MPI rank memory allocation (min/avg/max) = 4.578 | 4.579 | 4.58 Mbytes
Step Temp E_pair E_mol TotEng Press Volume Lx Ly Lz S/CPU 
    7000    291.20497   -10494.361            0   -9627.2019   -5587.5668    781.77739    9.2121507    9.2121507    9.2121507            0 
    7100    299.62968   -10526.748            0   -9634.5022   -4349.1868    781.40149     9.210674     9.210674     9.210674    40.498624 
    7200     295.5332   -10519.039            0   -9638.9915   -10053.342    780.50392     9.207146     9.207146     9.207146    42.596414 
    7300    294.11614   -10520.057            0   -9644.2297    8958.5103    779.52401    9.2032912    9.2032912    9.2032912    38.608254 
    7400    300.12811   -10542.647            0   -9648.9164   -10248.033    778.95306    9.2010438    9.2010438    9.2010438    47.238144 
    7500    292.27144   -10521.932            0   -9651.5977    20460.697    778.23204     9.198204     9.198204     9.198204    37.254352 
    7600    301.25215   -10551.496            0   -9654.4182    13764.222    778.00542     9.197311     9.197311     9.197311    40.923904 
    7700    301.02439   -10553.859            0   -9657.4602   -133.72408     778.4359    9.1990071    9.1990071    9.1990071    38.034837 
    7800    305.02186   -10570.737            0   -9662.4342    8876.3035    779.17841     9.201931     9.201931     9.201931    36.991538 
    7900    296.45996   -10547.883            0   -9665.0763   -33.434111    780.21938     9.206027     9.206027     9.206027    39.412102 
    8000    291.80145   -10535.431            0   -9666.4961    -885.1347    781.40494    9.2106876    9.2106876    9.2106876    38.127369 
Loop time of 25.1443 on 16 procs for 1000 steps with 1000 atoms

Performance: 3.436 ns/day, 6.985 hours/ns, 39.770 timesteps/s
94.3% CPU use with 16 MPI tasks x no OpenMP threads

MPI task timing breakdown:
Section |  min time  |  avg time  |  max time  |%varavg| %total
---------------------------------------------------------------
Pair    | 1.7187     | 1.8131     | 1.9037     |   3.8 |  7.21
Neigh   | 0.68507    | 0.7097     | 0.74462    |   2.1 |  2.82
Comm    | 0.74123    | 0.83894    | 0.95732    |   7.2 |  3.34
Output  | 14.587     | 15.032     | 21.631     |  44.0 | 59.78
Modify  | 0.14223    | 6.7421     | 7.1865     |  65.6 | 26.81
Other   |            | 0.008833   |            |       |  0.04

Nlocal:    62.5 ave 69 max 58 min
Histogram: 3 1 4 2 1 0 1 2 0 2
Nghost:    1859.38 ave 1876 max 1840 min
Histogram: 1 2 2 1 1 1 2 1 3 2
Neighs:    0 ave 0 max 0 min
Histogram: 16 0 0 0 0 0 0 0 0 0
FullNghs:  18886.4 ave 20882 max 17446 min
Histogram: 2 2 3 2 2 0 1 2 1 1

Total # of neighbors = 302182
Ave neighs/atom = 302.182
Neighbor list builds = 1000
Dangerous builds not checked
Setting up Verlet run ...
  Unit style    : real
  Current step  : 8000
  Time step     : 1
Per MPI rank memory allocation (min/avg/max) = 4.578 | 4.579 | 4.58 Mbytes
Step Temp E_pair E_mol TotEng Press Volume Lx Ly Lz S/CPU 
    8000    291.80145   -10535.431            0   -9666.4961    -885.1347    781.40494    9.2106876    9.2106876    9.2106876            0 
    8100     299.7616   -10562.165            0   -9669.5263   -5059.3254     782.3153    9.2142631    9.2142631    9.2142631    31.578081 
    8200     301.1207   -10565.676            0   -9668.9904   -11089.025    782.45796    9.2148231    9.2148231    9.2148231    38.647401 
    8300     288.9058   -10527.147            0   -9666.8345   -32.520349    782.03493    9.2131622    9.2131622    9.2131622    32.356488 
    8400    292.37153   -10533.907            0   -9663.2744   -1524.9963    781.86844    9.2125083    9.2125083    9.2125083    49.469614 
    8500    299.84353   -10549.297            0   -9656.4141   -11165.712    782.00859    9.2130588    9.2130588    9.2130588    39.435664 
    8600    294.83705   -10522.458            0   -9644.4835    12326.268    781.81862    9.2123127    9.2123127    9.2123127    39.526039 
    8700    292.36051   -10500.108            0   -9629.5083   -9893.2933     781.7047    9.2118652    9.2118652    9.2118652    40.551253 
    8800    296.47271   -10499.014            0    -9616.169   -1495.9071    781.23824    9.2100326    9.2100326    9.2100326    40.317446 
    8900    314.27297   -10540.327            0   -9604.4753    4682.5069    780.55229    9.2073362    9.2073362    9.2073362    43.736075 
    9000    306.14596   -10506.626            0   -9594.9758   -1596.8959    779.85492    9.2045933    9.2045933    9.2045933    39.773546 
Loop time of 25.679 on 16 procs for 1000 steps with 1000 atoms

Performance: 3.365 ns/day, 7.133 hours/ns, 38.942 timesteps/s
94.3% CPU use with 16 MPI tasks x no OpenMP threads

MPI task timing breakdown:
Section |  min time  |  avg time  |  max time  |%varavg| %total
---------------------------------------------------------------
Pair    | 1.7859     | 1.8696     | 1.9604     |   3.7 |  7.28
Neigh   | 0.69735    | 0.72946    | 0.76834    |   2.3 |  2.84
Comm    | 0.69364    | 0.82245    | 0.93861    |   7.5 |  3.20
Output  | 14.951     | 15.405     | 22.147     |  44.4 | 59.99
Modify  | 0.10787    | 6.8435     | 7.2966     |  66.5 | 26.65
Other   |            | 0.009089   |            |       |  0.04

Nlocal:    62.5 ave 66 max 58 min
Histogram: 1 1 1 3 0 0 3 5 1 1
Nghost:    1858.25 ave 1870 max 1852 min
Histogram: 1 4 4 3 1 1 0 1 0 1
Neighs:    0 ave 0 max 0 min
Histogram: 16 0 0 0 0 0 0 0 0 0
FullNghs:  18910.1 ave 19964 max 17558 min
Histogram: 1 2 0 2 1 0 3 5 1 1

Total # of neighbors = 302562
Ave neighs/atom = 302.562
Neighbor list builds = 1000
Dangerous builds not checked
Setting up Verlet run ...
  Unit style    : real
  Current step  : 9000
  Time step     : 1
Per MPI rank memory allocation (min/avg/max) = 4.578 | 4.579 | 4.58 Mbytes
Step Temp E_pair E_mol TotEng Press Volume Lx Ly Lz S/CPU 
    9000    306.14596   -10506.626            0   -9594.9758   -1596.8959    779.85492    9.2045933    9.2045933    9.2045933            0 
    9100    305.76442   -10499.014            0   -9588.5002    10042.656    779.58377    9.2035264    9.2035264    9.2035264    49.659205 
    9200    298.46551   -10473.455            0   -9584.6754    5801.3466     779.9952    9.2051452    9.2051452    9.2051452     42.91085 
    9300    304.38351   -10490.877            0   -9584.4744    16985.023    781.13224     9.209616     9.209616     9.209616    32.841214 
    9400    305.25681    -10494.46            0   -9585.4576      10822.6    783.38355    9.2184552    9.2184552    9.2184552    48.268891 
    9500    303.72283   -10490.966            0   -9586.5313    7956.5902    786.62222    9.2311414    9.2311414    9.2311414    32.575234 
    9600    303.43519   -10490.938            0   -9587.3596   -12645.153    790.25851    9.2453437    9.2453437    9.2453437    40.813114 
    9700    297.94918   -10474.497            0   -9587.2557   -13786.258    793.15379    9.2566207    9.2566207    9.2566207    45.534731 
    9800    298.25528   -10476.425            0   -9588.2714   -12198.075    794.56237    9.2620971    9.2620971    9.2620971    38.566975 
    9900     293.3714   -10463.082            0   -9589.4724   -16088.204    794.54298    9.2620218    9.2620218    9.2620218    46.200994 
   10000    298.17896   -10477.665            0    -9589.739   -11058.322     793.5073    9.2579957    9.2579957    9.2579957    36.784146 
Loop time of 24.6529 on 16 procs for 1000 steps with 1000 atoms

Performance: 3.505 ns/day, 6.848 hours/ns, 40.563 timesteps/s
94.3% CPU use with 16 MPI tasks x no OpenMP threads

MPI task timing breakdown:
Section |  min time  |  avg time  |  max time  |%varavg| %total
---------------------------------------------------------------
Pair    | 1.7084     | 1.7931     | 1.9108     |   4.2 |  7.27
Neigh   | 0.67862    | 0.71175    | 0.7784     |   3.1 |  2.89
Comm    | 0.72979    | 0.91327    | 1.0252     |   8.4 |  3.70
Output  | 15.003     | 15.392     | 21.175     |  38.1 | 62.44
Modify  | 0.048872   | 5.8336     | 6.2285     |  61.8 | 23.66
Other   |            | 0.008787   |            |       |  0.04

Nlocal:    62.5 ave 69 max 59 min
Histogram: 3 0 6 1 1 1 0 2 1 1
Nghost:    1849.62 ave 1875 max 1825 min
Histogram: 2 1 0 4 1 1 3 1 2 1
Neighs:    0 ave 0 max 0 min
Histogram: 16 0 0 0 0 0 0 0 0 0
FullNghs:  18594.6 ave 20471 max 17524 min
Histogram: 3 4 2 1 1 1 0 2 1 1

Total # of neighbors = 297514
Ave neighs/atom = 297.514
Neighbor list builds = 1000
Dangerous builds not checked
Setting up Verlet run ...
  Unit style    : real
  Current step  : 10000
  Time step     : 1
Per MPI rank memory allocation (min/avg/max) = 4.578 | 4.579 | 4.58 Mbytes
Step Temp E_pair E_mol TotEng Press Volume Lx Ly Lz S/CPU 
   10000    298.17896   -10477.665            0    -9589.739   -11058.322     793.5073    9.2579957    9.2579957    9.2579957            0 
   10100     299.0037   -10479.694            0   -9589.3115   -12537.665    791.76809    9.2512269    9.2512269    9.2512269    42.967311 
   10200     300.4917   -10484.935            0   -9590.1224    4715.7234    789.38396    9.2419319    9.2419319    9.2419319    48.134924 
   10300    305.54029    -10500.44            0   -9590.5936   -2388.8006    786.72443    9.2315412    9.2315412    9.2315412     45.33748 
   10400    299.05602   -10481.349            0   -9590.8111    12205.406    784.01246    9.2209214    9.2209214    9.2209214    36.951991 
   10500    301.25612   -10489.222            0   -9592.1324    20295.748    782.08258    9.2133493    9.2133493    9.2133493    49.426486 
   10600    298.21566   -10482.974            0   -9594.9385      9613.23    780.84517    9.2084876    9.2084876    9.2084876    42.011025 
   10700     299.3771   -10491.521            0   -9600.0275   -15879.582    780.16294     9.205805     9.205805     9.205805    48.158143 
   10800    301.05078   -10502.644            0    -9606.166   -4020.8262    779.67707    9.2038936    9.2038936    9.2038936     42.42574 
   10900    293.10269   -10485.032            0   -9612.2223   -3479.3619    778.90706    9.2008626    9.2008626    9.2008626    46.173996 
   11000    300.06426   -10514.306            0   -9620.7657    6076.8309    778.23885    9.1982308    9.1982308    9.1982308    42.314288 
Loop time of 22.6828 on 16 procs for 1000 steps with 1000 atoms

Performance: 3.809 ns/day, 6.301 hours/ns, 44.086 timesteps/s
94.3% CPU use with 16 MPI tasks x no OpenMP threads

MPI task timing breakdown:
Section |  min time  |  avg time  |  max time  |%varavg| %total
---------------------------------------------------------------
Pair    | 1.759      | 1.828      | 1.8881     |   3.2 |  8.06
Neigh   | 0.68377    | 0.71896    | 0.7502     |   1.8 |  3.17
Comm    | 0.70354    | 0.79455    | 0.89089    |   6.0 |  3.50
Output  | 12.669     | 13.085     | 19.206     |  43.7 | 57.69
Modify  | 0.12647    | 6.2473     | 6.6635     |  63.2 | 27.54
Other   |            | 0.00882    |            |       |  0.04

Nlocal:    62.5 ave 67 max 58 min
Histogram: 1 2 1 1 3 2 2 2 1 1
Nghost:    1858.75 ave 1877 max 1834 min
Histogram: 1 2 0 5 0 0 1 1 0 6
Neighs:    0 ave 0 max 0 min
Histogram: 16 0 0 0 0 0 0 0 0 0
FullNghs:  18974.2 ave 20128 max 17670 min
Histogram: 3 1 0 1 2 3 0 2 1 3

Total # of neighbors = 303588
Ave neighs/atom = 303.588
Neighbor list builds = 1000
Dangerous builds not checked
Setting up Verlet run ...
  Unit style    : real
  Current step  : 11000
  Time step     : 1
Per MPI rank memory allocation (min/avg/max) = 4.578 | 4.579 | 4.58 Mbytes
Step Temp E_pair E_mol TotEng Press Volume Lx Ly Lz S/CPU 
   11000    300.06426   -10514.306            0   -9620.7657    6076.8309    778.23885    9.1982308    9.1982308    9.1982308            0 
   11100    298.85545   -10516.709            0   -9626.7683    7410.7033    778.14998    9.1978807    9.1978807    9.1978807    48.522743 
   11200    300.97221    -10529.89            0   -9633.6459    11894.218    778.65086    9.1998537    9.1998537    9.1998537     43.75307 
   11300     292.4898   -10509.675            0   -9638.6904    15898.278    780.00582     9.205187     9.205187     9.205187    42.701974 
   11400    303.97028   -10550.381            0   -9645.2096    5479.6939    782.30625    9.2142275    9.2142275    9.2142275    49.050695 
   11500    290.42401     -10513.4            0   -9648.5668   -20226.512    785.13002    9.2253006    9.2253006    9.2253006    38.723885 
   11600    285.48199   -10501.491            0   -9651.3744   -11251.729    787.86777    9.2360111    9.2360111    9.2360111     43.73285 
   11700    288.75307   -10512.951            0    -9653.094   -19761.379    789.82462    9.2436513    9.2436513    9.2436513    40.341427 
   11800    296.11237   -10535.667            0   -9653.8946   -24118.344    790.39735    9.2458851    9.2458851    9.2458851     45.70527 
   11900     300.2287   -10547.427            0   -9653.3976   -14349.024    789.57041    9.2426595    9.2426595    9.2426595    48.673592 
   12000    300.81999   -10547.967            0   -9652.1763   -17600.676     787.2369    9.2335452    9.2335452    9.2335452    42.417683 
Loop time of 22.6748 on 16 procs for 1000 steps with 1000 atoms

Performance: 3.810 ns/day, 6.299 hours/ns, 44.102 timesteps/s
94.3% CPU use with 16 MPI tasks x no OpenMP threads

MPI task timing breakdown:
Section |  min time  |  avg time  |  max time  |%varavg| %total
---------------------------------------------------------------
Pair    | 1.6867     | 1.7806     | 1.8923     |   4.1 |  7.85
Neigh   | 0.67546    | 0.70156    | 0.74599    |   2.5 |  3.09
Comm    | 0.7028     | 0.84239    | 0.96253    |   8.1 |  3.72
Output  | 13.091     | 13.478     | 19.22      |  40.4 | 59.44
Modify  | 0.12352    | 5.8637     | 6.2508     |  61.2 | 25.86
Other   |            | 0.008773   |            |       |  0.04

Nlocal:    62.5 ave 66 max 56 min
Histogram: 1 0 0 0 1 2 4 3 1 4
Nghost:    1850.62 ave 1860 max 1841 min
Histogram: 2 2 2 2 0 1 1 1 2 3
Neighs:    0 ave 0 max 0 min
Histogram: 16 0 0 0 0 0 0 0 0 0
FullNghs:  18742.6 ave 19894 max 16646 min
Histogram: 1 0 0 0 3 1 5 2 2 2

Total # of neighbors = 299882
Ave neighs/atom = 299.882
Neighbor list builds = 1000
Dangerous builds not checked
Setting up Verlet run ...
  Unit style    : real
  Current step  : 12000
  Time step     : 1
Per MPI rank memory allocation (min/avg/max) = 4.578 | 4.579 | 4.58 Mbytes
Step Temp E_pair E_mol TotEng Press Volume Lx Ly Lz S/CPU 
   12000    300.81999   -10547.967            0   -9652.1763   -17600.676     787.2369    9.2335452    9.2335452    9.2335452            0 
   12100    299.67399   -10542.736            0   -9650.3582    12272.491    783.81615    9.2201518    9.2201518    9.2201518    45.088327 
   12200     291.8821   -10513.863            0   -9644.6875    5615.3944    780.48548    9.2070735    9.2070735    9.2070735    36.643922 
   12300     290.2627   -10501.997            0   -9637.6442    12899.896    777.33371    9.1946634    9.1946634    9.1946634    45.298871 
   12400    307.11713    -10543.73            0    -9629.188    7615.2704    774.72798    9.1843779    9.1843779    9.1843779    46.418002 
   12500    307.61737   -10537.143            0   -9621.1109   -183.52849    773.00323    9.1775573    9.1775573    9.1775573      38.3779 
   12600    307.40608    -10525.64            0   -9610.2372    9773.8347    772.00137    9.1735906    9.1735906    9.1735906    48.841577 
   12700    308.92084   -10521.938            0   -9602.0247    9048.9114    771.61453    9.1720581    9.1720581    9.1720581    39.500297 
   12800    302.95547   -10495.471            0   -9593.3211    28251.238    772.14808    9.1741717    9.1741717    9.1741717    46.811725 
   12900    307.52263   -10501.861            0   -9586.1113    23786.449    774.08998    9.1818561    9.1818561    9.1818561    47.017649 
   13000    293.90214   -10454.427            0   -9579.2368     5599.774      776.979    9.1932646    9.1932646    9.1932646     45.10124 
Loop time of 22.9738 on 16 procs for 1000 steps with 1000 atoms

Performance: 3.761 ns/day, 6.382 hours/ns, 43.528 timesteps/s
94.3% CPU use with 16 MPI tasks x no OpenMP threads

MPI task timing breakdown:
Section |  min time  |  avg time  |  max time  |%varavg| %total
---------------------------------------------------------------
Pair    | 1.7637     | 1.8495     | 2.0067     |   4.4 |  8.05
Neigh   | 0.6788     | 0.71928    | 0.75861    |   2.2 |  3.13
Comm    | 0.69192    | 0.89243    | 1.0153     |   8.2 |  3.88
Output  | 13.231     | 13.621     | 19.417     |  40.5 | 59.29
Modify  | 0.090768   | 5.8825     | 6.2746     |  61.7 | 25.61
Other   |            | 0.008937   |            |       |  0.04

Nlocal:    62.5 ave 67 max 56 min
Histogram: 1 3 0 0 1 3 1 2 1 4
Nghost:    1871.12 ave 1886 max 1858 min
Histogram: 2 2 1 4 0 1 2 1 0 3
Neighs:    0 ave 0 max 0 min
Histogram: 16 0 0 0 0 0 0 0 0 0
FullNghs:  19003 ave 20579 max 16721 min
Histogram: 1 0 3 0 1 1 3 3 1 3

Total # of neighbors = 304048
Ave neighs/atom = 304.048
Neighbor list builds = 1000
Dangerous builds not checked
Setting up Verlet run ...
  Unit style    : real
  Current step  : 13000
  Time step     : 1
Per MPI rank memory allocation (min/avg/max) = 4.578 | 4.579 | 4.58 Mbytes
Step Temp E_pair E_mol TotEng Press Volume Lx Ly Lz S/CPU 
   13000    293.90214   -10454.427            0   -9579.2368     5599.774      776.979    9.1932646    9.1932646    9.1932646            0 
   13100    298.19268   -10461.879            0    -9573.912    6654.8587    780.55295    9.2073388    9.2073388    9.2073388    40.525533 
   13200    309.22379   -10490.989            0   -9570.1731   -10154.151    784.45338    9.2226497    9.2226497    9.2226497    40.623337 
   13300    296.34184   -10449.294            0    -9566.839    -14921.64    787.99246    9.2364983    9.2364983    9.2364983    48.654916 
   13400    298.49825   -10452.742            0   -9563.8656     -16184.3    790.54079    9.2464444    9.2464444    9.2464444    46.067136 
   13500    299.72187   -10453.971            0   -9561.4507   -3104.6602    791.62849    9.2506831    9.2506831    9.2506831     39.90075 
   13600    292.71151   -10430.507            0   -9558.8623    -10656.58    791.83862    9.2515016    9.2515016    9.2515016    52.179347 
   13700    312.47059   -10487.783            0   -9557.2988   -20616.211    791.56092    9.2504199    9.2504199    9.2504199    34.196763 
   13800    301.12906   -10448.567            0   -9551.8556    3334.9461    790.30891    9.2455402    9.2455402    9.2455402    41.054595 
   13900    318.25074   -10496.276            0   -9548.5798    7293.9074    788.61655    9.2389361    9.2389361    9.2389361    49.236945 
   14000    306.21846   -10454.972            0   -9543.1052   -544.10361    786.98848    9.2325739    9.2325739    9.2325739    39.864662 
Loop time of 23.4775 on 16 procs for 1000 steps with 1000 atoms

Performance: 3.680 ns/day, 6.522 hours/ns, 42.594 timesteps/s
94.2% CPU use with 16 MPI tasks x no OpenMP threads

MPI task timing breakdown:
Section |  min time  |  avg time  |  max time  |%varavg| %total
---------------------------------------------------------------
Pair    | 1.707      | 1.7654     | 1.9112     |   4.0 |  7.52
Neigh   | 0.6808     | 0.70434    | 0.73808    |   1.7 |  3.00
Comm    | 0.62894    | 0.80316    | 0.87688    |   6.8 |  3.42
Output  | 13.658     | 14.064     | 20.107     |  41.6 | 59.91
Modify  | 0.083552   | 6.1315     | 6.54       |  63.1 | 26.12
Other   |            | 0.008729   |            |       |  0.04

Nlocal:    62.5 ave 66 max 57 min
Histogram: 1 0 0 1 5 2 0 3 2 2
Nghost:    1857.88 ave 1876 max 1844 min
Histogram: 1 2 5 1 2 1 0 1 0 3
Neighs:    0 ave 0 max 0 min
Histogram: 16 0 0 0 0 0 0 0 0 0
FullNghs:  18740.8 ave 19913 max 17063 min
Histogram: 1 0 1 0 5 2 0 3 2 2

Total # of neighbors = 299852
Ave neighs/atom = 299.852
Neighbor list builds = 1000
Dangerous builds not checked
Setting up Verlet run ...
  Unit style    : real
  Current step  : 14000
  Time step     : 1
Per MPI rank memory allocation (min/avg/max) = 4.578 | 4.579 | 4.58 Mbytes
Step Temp E_pair E_mol TotEng Press Volume Lx Ly Lz S/CPU 
   14000    306.21846   -10454.972            0   -9543.1052   -544.10361    786.98848    9.2325739    9.2325739    9.2325739            0 
   14100    304.54226   -10445.273            0    -9538.398    3664.0057    784.99474    9.2247708    9.2247708    9.2247708    45.582257 
   14200    304.41121   -10439.414            0   -9532.9292    8699.6877    783.22861    9.2178474    9.2178474    9.2178474    43.052569 
   14300    316.74871    -10474.32            0   -9531.0968    1519.2612    782.12054    9.2134984    9.2134984    9.2134984    47.880995 
   14400    294.61417    -10406.28            0    -9528.969   -1011.7927    781.50147    9.2110668    9.2110668    9.2110668     38.85778 
   14500    315.47519   -10470.042            0   -9530.6108    18625.752    781.31007    9.2103148    9.2103148    9.2103148    38.361563 
   14600    315.78543   -10476.052            0   -9535.6965   -3244.0689    781.87619    9.2125388    9.2125388    9.2125388    40.148365 
   14700    297.16058   -10427.836            0   -9542.9423   -3527.1846    783.02244    9.2170385    9.2170385    9.2170385    45.675212 
   14800    316.92927   -10498.126            0   -9554.3643    1468.6038      784.486    9.2227775    9.2227775    9.2227775    44.647863 
   14900    313.93311    -10501.26            0    -9566.421    3265.5097    785.93279    9.2284438    9.2284438    9.2284438    31.352308 
   15000    302.86256   -10479.366            0   -9577.4934    8296.0247    787.69679    9.2353429    9.2353429    9.2353429    40.228174 
Loop time of 24.3806 on 16 procs for 1000 steps with 1000 atoms

Performance: 3.544 ns/day, 6.772 hours/ns, 41.016 timesteps/s
94.3% CPU use with 16 MPI tasks x no OpenMP threads

MPI task timing breakdown:
Section |  min time  |  avg time  |  max time  |%varavg| %total
---------------------------------------------------------------
Pair    | 1.7462     | 1.8212     | 1.9193     |   3.7 |  7.47
Neigh   | 0.69087    | 0.71531    | 0.76179    |   2.3 |  2.93
Comm    | 0.65697    | 0.79894    | 0.89141    |   7.4 |  3.28
Output  | 14.269     | 14.692     | 20.976     |  42.3 | 60.26
Modify  | 0.059267   | 6.3442     | 6.7675     |  64.4 | 26.02
Other   |            | 0.008831   |            |       |  0.04

Nlocal:    62.5 ave 68 max 56 min
Histogram: 1 0 1 2 3 3 2 1 0 3
Nghost:    1853.12 ave 1872 max 1834 min
Histogram: 2 0 2 3 1 3 1 1 1 2
Neighs:    0 ave 0 max 0 min
Histogram: 16 0 0 0 0 0 0 0 0 0
FullNghs:  18746.6 ave 20352 max 16738 min
Histogram: 1 0 1 2 4 2 1 2 0 3

Total # of neighbors = 299946
Ave neighs/atom = 299.946
Neighbor list builds = 1000
Dangerous builds not checked
Setting up Verlet run ...
  Unit style    : real
  Current step  : 15000
  Time step     : 1
Per MPI rank memory allocation (min/avg/max) = 4.578 | 4.579 | 4.58 Mbytes
Step Temp E_pair E_mol TotEng Press Volume Lx Ly Lz S/CPU 
   15000    302.86256   -10479.366            0   -9577.4934    8296.0247    787.69679    9.2353429    9.2353429    9.2353429            0 
   15100    299.58597   -10481.675            0   -9589.5586    4286.2773    789.99783     9.244327     9.244327     9.244327    44.019547 
   15200    293.95536    -10472.52            0   -9597.1708    -8653.871     792.7772    9.2551554    9.2551554    9.2551554    36.285691 
   15300    295.39975   -10482.896            0   -9603.2456   -21919.285    795.25763    9.2647979    9.2647979    9.2647979    49.674784 
   15400    297.78705   -10493.229            0   -9606.4704   -9489.6109    796.69645    9.2703819    9.2703819    9.2703819    43.673454 
   15500    303.67289   -10513.469            0   -9609.1829   -10154.732    797.05321    9.2717655    9.2717655    9.2717655     47.24449 
   15600    288.35573   -10467.752            0   -9609.0774   -10071.169    796.67626    9.2703036    9.2703036    9.2703036    48.652333 
   15700      293.633    -10482.71            0    -9608.321   -4634.5292    795.55032    9.2659344    9.2659344    9.2659344    32.496858 
   15800    302.93803   -10508.795            0   -9606.6975    -2095.286    793.82765    9.2592414    9.2592414    9.2592414    41.373513 
   15900    300.87666   -10500.295            0   -9604.3356    1674.4837     791.6826    9.2508939    9.2508939    9.2508939    36.482452 
   16000    299.03753   -10491.687            0    -9601.204    3550.7925    789.74774    9.2433514    9.2433514    9.2433514    49.816271 
Loop time of 23.7452 on 16 procs for 1000 steps with 1000 atoms

Performance: 3.639 ns/day, 6.596 hours/ns, 42.114 timesteps/s
94.3% CPU use with 16 MPI tasks x no OpenMP threads

MPI task timing breakdown:
Section |  min time  |  avg time  |  max time  |%varavg| %total
---------------------------------------------------------------
Pair    | 1.6848     | 1.785      | 1.8792     |   4.3 |  7.52
Neigh   | 0.69183    | 0.71853    | 0.76146    |   2.2 |  3.03
Comm    | 0.68723    | 0.80165    | 0.91844    |   8.3 |  3.38
Output  | 13.286     | 13.731     | 20.33      |  46.0 | 57.83
Modify  | 0.10032    | 6.7005     | 7.1454     |  65.8 | 28.22
Other   |            | 0.008813   |            |       |  0.04

Nlocal:    62.5 ave 66 max 58 min
Histogram: 1 0 2 4 0 2 1 2 1 3
Nghost:    1847.88 ave 1860 max 1832 min
Histogram: 3 0 3 0 1 0 1 1 3 4
Neighs:    0 ave 0 max 0 min
Histogram: 16 0 0 0 0 0 0 0 0 0
FullNghs:  18688.9 ave 19844 max 17286 min
Histogram: 1 0 2 4 1 2 0 2 1 3

Total # of neighbors = 299022
Ave neighs/atom = 299.022
Neighbor list builds = 1000
Dangerous builds not checked
Setting up Verlet run ...
  Unit style    : real
  Current step  : 16000
  Time step     : 1
Per MPI rank memory allocation (min/avg/max) = 4.578 | 4.579 | 4.58 Mbytes
Step Temp E_pair E_mol TotEng Press Volume Lx Ly Lz S/CPU 
   16000    299.03753   -10491.687            0    -9601.204    3550.7925    789.74774    9.2433514    9.2433514    9.2433514            0 
   16100     303.8308   -10500.837            0   -9596.0805    5809.2769    788.39826    9.2380836    9.2380836    9.2380836    49.297026 
   16200    307.37507   -10505.961            0   -9590.6503    12087.939    787.14819    9.2331984    9.2331984    9.2331984    42.796447 
   16300    307.30464   -10500.203            0   -9585.1024    5400.2532    785.90684    9.2283422    9.2283422    9.2283422    49.982621 
   16400    301.88673   -10476.219            0   -9577.2524    6932.2511    784.48961    9.2227917    9.2227917    9.2227917    36.327327 
   16500    313.90144   -10503.407            0   -9568.6617   -2678.7498    783.19446    9.2177134    9.2177134    9.2177134    46.262935 
   16600     307.3708   -10474.566            0   -9559.2682    13922.674    782.02502    9.2131233    9.2131233    9.2131233     43.94585 
   16700    312.05744   -10479.511            0    -9550.257    3377.7565    781.38741    9.2106187    9.2106187    9.2106187    44.220063 
   16800    317.15522   -10487.826            0   -9543.3923   -977.26066    781.20698    9.2099097    9.2099097    9.2099097    38.708163 
   16900    315.54957   -10476.725            0   -9537.0723     10091.21    781.61447    9.2115108    9.2115108    9.2115108    43.564132 
   17000    296.97692   -10414.786            0   -9530.4397    7918.0686    782.65607    9.2156008    9.2156008    9.2156008    49.337018 
Loop time of 22.7229 on 16 procs for 1000 steps with 1000 atoms

Performance: 3.802 ns/day, 6.312 hours/ns, 44.008 timesteps/s
94.3% CPU use with 16 MPI tasks x no OpenMP threads

MPI task timing breakdown:
Section |  min time  |  avg time  |  max time  |%varavg| %total
---------------------------------------------------------------
Pair    | 1.6773     | 1.7692     | 1.8537     |   3.4 |  7.79
Neigh   | 0.66777    | 0.69988    | 0.73884    |   2.2 |  3.08
Comm    | 0.70381    | 0.79846    | 0.92234    |   6.9 |  3.51
Output  | 13.002     | 13.404     | 19.385     |  42.2 | 58.99
Modify  | 0.065573   | 6.0421     | 6.4456     |  62.8 | 26.59
Other   |            | 0.008767   |            |       |  0.04

Nlocal:    62.5 ave 67 max 57 min
Histogram: 2 0 2 0 1 2 1 3 3 2
Nghost:    1847.38 ave 1883 max 1821 min
Histogram: 3 1 4 0 1 3 0 0 3 1
Neighs:    0 ave 0 max 0 min
Histogram: 16 0 0 0 0 0 0 0 0 0
FullNghs:  18830.2 ave 20494 max 16891 min
Histogram: 2 1 1 1 1 2 3 2 2 1

Total # of neighbors = 301284
Ave neighs/atom = 301.284
Neighbor list builds = 1000
Dangerous builds not checked
Setting up Verlet run ...
  Unit style    : real
  Current step  : 17000
  Time step     : 1
Per MPI rank memory allocation (min/avg/max) = 4.578 | 4.579 | 4.58 Mbytes
Step Temp E_pair E_mol TotEng Press Volume Lx Ly Lz S/CPU 
   17000    296.97692   -10414.786            0   -9530.4397    7918.0686    782.65607    9.2156008    9.2156008    9.2156008            0 
   17100     305.5064   -10437.144            0   -9527.3982    18150.601    784.39383    9.2224163    9.2224163    9.2224163     39.25437 
   17200    302.45859   -10425.681            0    -9525.011    8434.5073     786.6134    9.2311069    9.2311069    9.2311069    41.213411 
   17300    305.71838   -10435.653            0    -9525.276    479.68724    789.22922     9.241328     9.241328     9.241328    41.985367 
   17400    317.50157   -10472.201            0   -9526.7353   -11994.283    791.69415    9.2509389    9.2509389    9.2509389    44.195419 
   17500    311.22137   -10459.093            0    -9532.329    -10213.95    793.76341    9.2589916    9.2589916    9.2589916    38.596958 
   17600    298.06975   -10427.783            0   -9540.1824   -16848.666    795.37876    9.2652682    9.2652682    9.2652682    44.513287 
   17700    309.10694   -10472.819            0   -9552.3516   -17863.562    796.24598    9.2686344    9.2686344    9.2686344    47.651893 
   17800    295.21012   -10443.269            0   -9564.1838   -13802.887    795.98513    9.2676221    9.2676221    9.2676221    40.324409 
   17900    297.06244   -10462.361            0   -9577.7596   -19315.883    794.76537    9.2628858    9.2628858    9.2628858    32.290365 
   18000    288.09232   -10446.639            0   -9588.7489    -8649.835    792.17926     9.252828     9.252828     9.252828    40.245238 
Loop time of 24.6159 on 16 procs for 1000 steps with 1000 atoms

Performance: 3.510 ns/day, 6.838 hours/ns, 40.624 timesteps/s
94.2% CPU use with 16 MPI tasks x no OpenMP threads

MPI task timing breakdown:
Section |  min time  |  avg time  |  max time  |%varavg| %total
---------------------------------------------------------------
Pair    | 1.6466     | 1.7388     | 1.8697     |   4.3 |  7.06
Neigh   | 0.66895    | 0.69748    | 0.73502    |   2.1 |  2.83
Comm    | 0.66753    | 0.8196     | 0.92856    |   8.0 |  3.33
Output  | 14.97      | 15.368     | 21.274     |  38.9 | 62.43
Modify  | 0.075813   | 5.9835     | 6.3816     |  62.4 | 24.31
Other   |            | 0.00881    |            |       |  0.04

Nlocal:    62.5 ave 66 max 60 min
Histogram: 2 5 0 3 0 2 0 0 1 3
Nghost:    1838.69 ave 1855 max 1824 min
Histogram: 1 3 2 2 2 1 1 0 1 3
Neighs:    0 ave 0 max 0 min
Histogram: 16 0 0 0 0 0 0 0 0 0
FullNghs:  18622.2 ave 19881 max 17819 min
Histogram: 2 4 3 2 1 0 0 1 0 3

Total # of neighbors = 297956
Ave neighs/atom = 297.956
Neighbor list builds = 1000
Dangerous builds not checked
Setting up Verlet run ...
  Unit style    : real
  Current step  : 18000
  Time step     : 1
Per MPI rank memory allocation (min/avg/max) = 4.578 | 4.579 | 4.58 Mbytes
Step Temp E_pair E_mol TotEng Press Volume Lx Ly Lz S/CPU 
   18000    288.09232   -10446.639            0   -9588.7489    -8649.835    792.17926     9.252828     9.252828     9.252828            0 
   18100     305.7366   -10511.741            0   -9601.3094   -14469.466    788.30726    9.2377281    9.2377281    9.2377281    48.641117 
   18200     300.1061   -10502.738            0   -9609.0734   -8717.2665    783.39264    9.2184909    9.2184909    9.2184909    46.389871 
   18300    309.78782   -10537.831            0   -9615.3354    6673.0127    777.94517    9.1970736    9.1970736    9.1970736    44.645962 
   18400    303.08894   -10522.498            0   -9619.9508    21894.127    772.53744    9.1757135    9.1757135    9.1757135    39.185558 
   18500    315.93239   -10564.794            0   -9624.0017    13643.099    768.15568    9.1583327    9.1583327    9.1583327    41.333324 
   18600    301.52802   -10525.741            0    -9627.842    16589.959    764.96374    9.1456298    9.1456298    9.1456298    42.759595 
   18700     313.6029   -10567.792            0    -9633.936    34532.314    763.32931    9.1391116    9.1391116    9.1391116    44.056159 
   18800    296.92608   -10525.517            0   -9641.3214    35502.302    763.52409    9.1398889    9.1398889    9.1398889    41.841788 
   18900    299.12337   -10539.862            0   -9649.1233    26655.623    765.34865    9.1471635    9.1471635    9.1471635    45.343114 
   19000    307.14212   -10571.932            0   -9657.3154   -376.24321    768.37311    9.1591967    9.1591967    9.1591967    42.533464 
Loop time of 22.9776 on 16 procs for 1000 steps with 1000 atoms

Performance: 3.760 ns/day, 6.383 hours/ns, 43.521 timesteps/s
94.3% CPU use with 16 MPI tasks x no OpenMP threads

MPI task timing breakdown:
Section |  min time  |  avg time  |  max time  |%varavg| %total
---------------------------------------------------------------
Pair    | 1.7606     | 1.8661     | 1.975      |   4.8 |  8.12
Neigh   | 0.69005    | 0.71978    | 0.76423    |   2.3 |  3.13
Comm    | 0.65494    | 0.80879    | 0.94374    |   9.2 |  3.52
Output  | 12.907     | 13.324     | 19.503     |  43.7 | 57.99
Modify  | 0.070129   | 6.2499     | 6.6669     |  63.8 | 27.20
Other   |            | 0.008906   |            |       |  0.04

Nlocal:    62.5 ave 67 max 58 min
Histogram: 1 1 2 2 1 4 1 2 1 1
Nghost:    1887.19 ave 1906 max 1871 min
Histogram: 2 1 4 0 3 0 1 1 1 3
Neighs:    0 ave 0 max 0 min
Histogram: 16 0 0 0 0 0 0 0 0 0
FullNghs:  19196.1 ave 20730 max 17591 min
Histogram: 1 1 2 1 2 3 2 2 1 1

Total # of neighbors = 307138
Ave neighs/atom = 307.138
Neighbor list builds = 1000
Dangerous builds not checked
Setting up Verlet run ...
  Unit style    : real
  Current step  : 19000
  Time step     : 1
Per MPI rank memory allocation (min/avg/max) = 4.578 | 4.579 | 4.58 Mbytes
Step Temp E_pair E_mol TotEng Press Volume Lx Ly Lz S/CPU 
   19000    307.14212   -10571.932            0   -9657.3154   -376.24321    768.37311    9.1591967    9.1591967    9.1591967            0 
   19100    290.44387   -10527.945            0   -9663.0529     22333.59    772.05759    9.1738133    9.1738133    9.1738133    40.523683 
   19200    295.87967   -10550.157            0   -9669.0776    6958.6603    776.61795    9.1918404    9.1918404    9.1918404    46.894485 
   19300    279.19762   -10501.808            0   -9670.4048    1604.8419    781.31817    9.2103466    9.2103466    9.2103466    39.489811 
   19400     293.9865   -10546.943            0   -9671.5018    14485.515    785.49905    9.2267458    9.2267458    9.2267458    51.401708 
   19500    289.50168   -10532.409            0   -9670.3226    -30205.15    788.87353    9.2399395    9.2399395    9.2399395    39.047237 
   19600    287.19796   -10521.409            0   -9666.1823   -20928.538    790.49611    9.2462702    9.2462702    9.2462702    48.338661 
   19700    279.51183   -10492.502            0   -9660.1638   -17670.268    790.77991    9.2473765    9.2473765    9.2473765    44.952017 
   19800     294.8646   -10530.579            0    -9652.523   -7926.5261    789.91313    9.2439966    9.2439966    9.2439966    40.683478 
   19900    287.19028   -10496.996            0   -9641.7927   -11407.105    788.13563    9.2370576    9.2370576    9.2370576    45.682821 
   20000    290.25671   -10493.902            0    -9629.567   -6473.5198     785.8862    9.2282614    9.2282614    9.2282614    41.904671 
Loop time of 22.9656 on 16 procs for 1000 steps with 1000 atoms

Performance: 3.762 ns/day, 6.379 hours/ns, 43.543 timesteps/s
94.3% CPU use with 16 MPI tasks x no OpenMP threads

MPI task timing breakdown:
Section |  min time  |  avg time  |  max time  |%varavg| %total
---------------------------------------------------------------
Pair    | 1.6553     | 1.8026     | 1.8955     |   3.8 |  7.85
Neigh   | 0.6804     | 0.71225    | 0.73818    |   1.8 |  3.10
Comm    | 0.71996    | 0.8262     | 1.0089     |   7.0 |  3.60
Output  | 13.376     | 13.764     | 19.526     |  40.1 | 59.93
Modify  | 0.092187   | 5.8516     | 6.2511     |  61.5 | 25.48
Other   |            | 0.008815   |            |       |  0.04

Nlocal:    62.5 ave 70 max 57 min
Histogram: 3 2 2 2 1 0 3 0 2 1
Nghost:    1865.69 ave 1893 max 1844 min
Histogram: 2 2 2 1 1 4 1 2 0 1
Neighs:    0 ave 0 max 0 min
Histogram: 16 0 0 0 0 0 0 0 0 0
FullNghs:  18771.6 ave 20866 max 17002 min
Histogram: 2 2 3 1 2 0 1 2 0 3

Total # of neighbors = 300346
Ave neighs/atom = 300.346
Neighbor list builds = 1000
Dangerous builds not checked
Setting up Verlet run ...
  Unit style    : real
  Current step  : 20000
  Time step     : 1
Per MPI rank memory allocation (min/avg/max) = 4.578 | 4.579 | 4.58 Mbytes
Step Temp E_pair E_mol TotEng Press Volume Lx Ly Lz S/CPU 
   20000    290.25671   -10493.902            0    -9629.567   -6473.5198     785.8862    9.2282614    9.2282614    9.2282614            0 
   20100    305.89455    -10531.04            0   -9620.1384    3802.1927    783.30718    9.2181556    9.2181556    9.2181556    39.764954 
   20200    293.35323   -10483.352            0   -9609.7957    3723.3319     780.9013    9.2087083    9.2087083    9.2087083    47.461062 
   20300    306.54439   -10519.763            0    -9606.926    7941.8562    779.11699    9.2016891    9.2016891    9.2016891    33.290969 
   20400    304.41088   -10511.226            0   -9604.7425    9032.8626    778.01423    9.1973458    9.1973458    9.1973458    39.145584 
   20500    294.54079   -10480.471            0    -9603.379    13795.976     777.5753    9.1956158    9.1956158    9.1956158    41.526138 
   20600     308.0843   -10520.882            0   -9603.4597    14387.019    777.63675    9.1958581    9.1958581    9.1958581    40.987256 
   20700    304.24635   -10507.238            0   -9601.2446     10397.97    778.64199    9.1998188    9.1998188    9.1998188    45.600488 
   20800    303.83631   -10506.874            0   -9602.1011   -9093.6276    780.33029    9.2064632    9.2064632    9.2064632    43.856254 
   20900    291.24432   -10468.506            0   -9601.2297   -2690.0265    782.05519    9.2132417    9.2132417    9.2132417    35.521902 
   21000    302.68891    -10503.78            0   -9602.4239   -1173.9623    784.12129    9.2213481    9.2213481    9.2213481    44.088602 
Loop time of 24.5845 on 16 procs for 1000 steps with 1000 atoms

Performance: 3.514 ns/day, 6.829 hours/ns, 40.676 timesteps/s
94.3% CPU use with 16 MPI tasks x no OpenMP threads

MPI task timing breakdown:
Section |  min time  |  avg time  |  max time  |%varavg| %total
---------------------------------------------------------------
Pair    | 1.7014     | 1.7921     | 1.8581     |   3.6 |  7.29
Neigh   | 0.6783     | 0.70676    | 0.73216    |   1.8 |  2.87
Comm    | 0.7346     | 0.81664    | 0.9304     |   6.8 |  3.32
Output  | 14.507     | 14.929     | 21.199     |  41.9 | 60.73
Modify  | 0.061398   | 6.3307     | 6.7531     |  64.3 | 25.75
Other   |            | 0.008787   |            |       |  0.04

Nlocal:    62.5 ave 68 max 58 min
Histogram: 1 2 0 3 3 2 2 0 1 2
Nghost:    1862.56 ave 1879 max 1844 min
Histogram: 1 2 1 0 3 2 2 2 1 2
Neighs:    0 ave 0 max 0 min
Histogram: 16 0 0 0 0 0 0 0 0 0
FullNghs:  18799.5 ave 20570 max 17455 min
Histogram: 2 1 3 2 3 2 0 1 0 2

Total # of neighbors = 300792
Ave neighs/atom = 300.792
Neighbor list builds = 1000
Dangerous builds not checked
Setting up Verlet run ...
  Unit style    : real
  Current step  : 21000
  Time step     : 1
Per MPI rank memory allocation (min/avg/max) = 4.578 | 4.579 | 4.58 Mbytes
Step Temp E_pair E_mol TotEng Press Volume Lx Ly Lz S/CPU 
   21000    302.68891    -10503.78            0   -9602.4239   -1173.9623    784.12129    9.2213481    9.2213481    9.2213481            0 
   21100    304.88151   -10509.855            0   -9601.9698   -5770.0431    786.33593    9.2300214    9.2300214    9.2300214    44.924111 
   21200    295.07912   -10479.475            0   -9600.7799   -1463.0272    788.00689    9.2365547    9.2365547    9.2365547    39.807844 
   21300    304.31963   -10508.069            0   -9601.8567   -11795.797    789.32409    9.2416983    9.2416983    9.2416983    39.887859 
   21400    306.97011   -10514.527            0   -9600.4225   -10158.128    789.80049    9.2435572    9.2435572    9.2435572    38.651199 
   21500    289.91078   -10463.466            0   -9600.1611    2191.0206    789.98955    9.2442947    9.2442947    9.2442947    49.003317 
   21600    297.82103   -10485.592            0   -9598.7319    8167.8463    790.18862    9.2450711    9.2450711    9.2450711    41.169944 
   21700    305.71929   -10509.488            0   -9599.1086   -866.06425    790.32874    9.2456175    9.2456175    9.2456175    47.141473 
   21800    301.45736   -10496.179            0   -9598.4908     2131.979    790.37223    9.2457871    9.2457871    9.2457871    47.930185 
   21900    305.41689   -10509.321            0   -9599.8415   -9746.7265    790.22846    9.2452265    9.2452265    9.2452265    38.187806 
   22000     309.7941   -10523.237            0   -9600.7233    3371.2577    789.68369    9.2431015    9.2431015    9.2431015     51.15978 
Loop time of 23.0829 on 16 procs for 1000 steps with 1000 atoms

Performance: 3.743 ns/day, 6.412 hours/ns, 43.322 timesteps/s
94.3% CPU use with 16 MPI tasks x no OpenMP threads

MPI task timing breakdown:
Section |  min time  |  avg time  |  max time  |%varavg| %total
---------------------------------------------------------------
Pair    | 1.6298     | 1.7671     | 1.867      |   5.2 |  7.66
Neigh   | 0.66206    | 0.70703    | 0.7399     |   2.6 |  3.06
Comm    | 0.68747    | 0.81968    | 1.0021     |   9.8 |  3.55
Output  | 13.622     | 14.007     | 19.721     |  39.4 | 60.68
Modify  | 0.05833    | 5.7734     | 6.1589     |  61.4 | 25.01
Other   |            | 0.008766   |            |       |  0.04

Nlocal:    62.5 ave 67 max 57 min
Histogram: 1 2 0 2 1 1 2 1 3 3
Nghost:    1854.31 ave 1878 max 1843 min
Histogram: 3 4 1 2 2 1 2 0 0 1
Neighs:    0 ave 0 max 0 min
Histogram: 16 0 0 0 0 0 0 0 0 0
FullNghs:  18705.1 ave 20032 max 17120 min
Histogram: 3 0 2 1 1 1 1 1 3 3

Total # of neighbors = 299282
Ave neighs/atom = 299.282
Neighbor list builds = 1000
Dangerous builds not checked
Setting up Verlet run ...
  Unit style    : real
  Current step  : 22000
  Time step     : 1
Per MPI rank memory allocation (min/avg/max) = 4.578 | 4.579 | 4.58 Mbytes
Step Temp E_pair E_mol TotEng Press Volume Lx Ly Lz S/CPU 
   22000     309.7941   -10523.237            0   -9600.7233    3371.2577    789.68369    9.2431015    9.2431015    9.2431015            0 
   22100    296.79665   -10486.361            0   -9602.5508    1807.0883    788.70366    9.2392762    9.2392762    9.2392762    26.810069 
   22200    297.62334    -10491.93            0   -9605.6585   -17787.738    787.48035     9.234497     9.234497     9.234497    41.687334 
   22300    304.82505   -10516.478            0   -9608.7614    17024.197    785.73302    9.2276618    9.2276618    9.2276618    44.945303 
   22400    293.26961   -10484.232            0   -9610.9253    2909.2644    784.47752    9.2227443    9.2227443    9.2227443    38.256292 
   22500    296.76606    -10498.92            0   -9615.2011    3592.2553     783.5544    9.2191253    9.2191253    9.2191253     42.88412 
   22600    296.95531   -10504.351            0   -9620.0693    -3009.814     782.7426    9.2159404    9.2159404    9.2159404    48.864954 
   22700    310.40398   -10549.569            0   -9625.2394   -5667.1701    782.07842     9.213333     9.213333     9.213333    37.768537 
   22800    287.61801   -10484.831            0   -9628.3534    11323.631    781.42628    9.2107714    9.2107714    9.2107714    51.474284 
   22900     294.6481   -10510.334            0   -9632.9223    12501.647    780.97682    9.2090051    9.2090051    9.2090051    42.730023 
   23000    295.08736   -10516.781            0   -9638.0615    9172.8922     781.4834    9.2109958    9.2109958    9.2109958    48.665668 
Loop time of 24.3315 on 16 procs for 1000 steps with 1000 atoms

Performance: 3.551 ns/day, 6.759 hours/ns, 41.099 timesteps/s
94.3% CPU use with 16 MPI tasks x no OpenMP threads

MPI task timing breakdown:
Section |  min time  |  avg time  |  max time  |%varavg| %total
---------------------------------------------------------------
Pair    | 1.6238     | 1.8064     | 1.9413     |   5.3 |  7.42
Neigh   | 0.66702    | 0.71535    | 0.75497    |   2.6 |  2.94
Comm    | 0.67129    | 0.84102    | 1.0725     |  10.1 |  3.46
Output  | 13.399     | 13.869     | 20.871     |  48.5 | 57.00
Modify  | 0.088628   | 7.0907     | 7.5614     |  67.9 | 29.14
Other   |            | 0.008818   |            |       |  0.04

Nlocal:    62.5 ave 70 max 57 min
Histogram: 3 2 1 1 1 3 3 1 0 1
Nghost:    1844.31 ave 1862 max 1828 min
Histogram: 3 1 1 0 3 2 1 3 1 1
Neighs:    0 ave 0 max 0 min
Histogram: 16 0 0 0 0 0 0 0 0 0
FullNghs:  18901.4 ave 21449 max 17117 min
Histogram: 3 2 1 1 2 2 4 0 0 1

Total # of neighbors = 302422
Ave neighs/atom = 302.422
Neighbor list builds = 1000
Dangerous builds not checked
Setting up Verlet run ...
  Unit style    : real
  Current step  : 23000
  Time step     : 1
Per MPI rank memory allocation (min/avg/max) = 4.578 | 4.579 | 4.58 Mbytes
Step Temp E_pair E_mol TotEng Press Volume Lx Ly Lz S/CPU 
   23000    295.08736   -10516.781            0   -9638.0615    9172.8922     781.4834    9.2109958    9.2109958    9.2109958            0 
   23100    297.06324   -10527.748            0   -9643.1444    11214.981    782.46656    9.2148569    9.2148569    9.2148569    44.760053 
   23200    303.32803   -10551.806            0   -9648.5471    8347.1077     783.7295     9.219812     9.219812     9.219812    38.812047 
   23300    286.04667   -10502.418            0   -9650.6198   -13398.057    785.17748    9.2254865    9.2254865    9.2254865    46.304792 
   23400    292.77607   -10525.427            0     -9653.59   -4010.9549    786.06984    9.2289801    9.2289801    9.2289801    49.211912 
   23500    280.56787   -10488.918            0   -9653.4344   -1541.4107    786.41969    9.2303491    9.2303491    9.2303491    41.823786 
   23600    282.38469   -10491.373            0   -9650.4791   -5778.8199    786.56642    9.2309231    9.2309231    9.2309231    42.805389 
   23700    289.21057   -10507.268            0   -9646.0486    7279.8417    786.46179    9.2305138    9.2305138    9.2305138     31.32165 
   23800    291.53287   -10505.616            0   -9637.4808   -11480.735     786.3622    9.2301242    9.2301242    9.2301242    47.261905 
   23900    302.68039   -10527.662            0   -9626.3314   -19681.981    785.48061    9.2266736    9.2266736    9.2266736    42.806455 
   24000    303.33259   -10516.241            0   -9612.9685   -13214.399    783.91669     9.220546     9.220546     9.220546    37.793936 
Loop time of 24.02 on 16 procs for 1000 steps with 1000 atoms

Performance: 3.597 ns/day, 6.672 hours/ns, 41.632 timesteps/s
94.3% CPU use with 16 MPI tasks x no OpenMP threads

MPI task timing breakdown:
Section |  min time  |  avg time  |  max time  |%varavg| %total
---------------------------------------------------------------
Pair    | 1.6797     | 1.792      | 1.8924     |   4.5 |  7.46
Neigh   | 0.6727     | 0.70969    | 0.76596    |   2.8 |  2.95
Comm    | 0.72143    | 0.8534     | 1.0003     |   8.8 |  3.55
Output  | 13.731     | 14.161     | 20.554     |  43.9 | 58.96
Modify  | 0.10147    | 6.495      | 6.9252     |  64.8 | 27.04
Other   |            | 0.00876    |            |       |  0.04

Nlocal:    62.5 ave 65 max 58 min
Histogram: 1 2 1 0 1 0 0 5 2 4
Nghost:    1853.69 ave 1881 max 1830 min
Histogram: 2 0 1 3 4 1 2 2 0 1
Neighs:    0 ave 0 max 0 min
Histogram: 16 0 0 0 0 0 0 0 0 0
FullNghs:  18828.8 ave 19811 max 17334 min
Histogram: 2 0 1 2 0 0 4 2 2 3

Total # of neighbors = 301260
Ave neighs/atom = 301.26
Neighbor list builds = 1000
Dangerous builds not checked
Setting up Verlet run ...
  Unit style    : real
  Current step  : 24000
  Time step     : 1
Per MPI rank memory allocation (min/avg/max) = 4.578 | 4.579 | 4.58 Mbytes
Step Temp E_pair E_mol TotEng Press Volume Lx Ly Lz S/CPU 
   24000    303.33259   -10516.241            0   -9612.9685   -13214.399    783.91669     9.220546     9.220546     9.220546            0 
   24100     302.8981   -10502.562            0   -9600.5833    -5913.915    781.89795    9.2126242    9.2126242    9.2126242    47.233463 
   24200    304.47187   -10495.389            0   -9588.7235    18756.544    779.83593    9.2045186    9.2045186    9.2045186    39.835591 
   24300    310.06579   -10505.247            0    -9581.924    9152.1119    778.63075    9.1997745    9.1997745    9.1997745    38.803775 
   24400    309.59661   -10499.672            0   -9577.7466    11888.367    778.35522    9.1986893    9.1986893    9.1986893    40.089529 
   24500    309.29711   -10497.462            0   -9576.4276     5800.525     779.4613    9.2030444    9.2030444    9.2030444    37.582334 
   24600     302.5462   -10477.187            0   -9576.2558     7049.785    781.45847    9.2108979    9.2108979    9.2108979    37.738294 
   24700    308.54231   -10494.903            0   -9576.1172    5254.1402    783.86698    9.2203511    9.2203511    9.2203511    37.579333 
   24800     311.9147   -10507.405            0    -9578.576   -12112.559    786.12526     9.229197     9.229197     9.229197    44.440104 
   24900    308.61142   -10501.188            0   -9582.1957   -8292.9113    787.93208    9.2362624    9.2362624    9.2362624    40.503208 
   25000    303.21644   -10489.089            0   -9586.1625   -15035.206    789.07203    9.2407144    9.2407144    9.2407144    37.100382 
Loop time of 25.0852 on 16 procs for 1000 steps with 1000 atoms

Performance: 3.444 ns/day, 6.968 hours/ns, 39.864 timesteps/s
94.2% CPU use with 16 MPI tasks x no OpenMP threads

MPI task timing breakdown:
Section |  min time  |  avg time  |  max time  |%varavg| %total
---------------------------------------------------------------
Pair    | 1.7158     | 1.8061     | 1.919      |   4.0 |  7.20
Neigh   | 0.67431    | 0.71171    | 0.76548    |   2.9 |  2.84
Comm    | 0.65946    | 0.82362    | 0.94434    |   8.9 |  3.28
Output  | 14.636     | 15.075     | 21.6       |  43.4 | 60.09
Modify  | 0.14262    | 6.6602     | 7.1051     |  65.2 | 26.55
Other   |            | 0.008832   |            |       |  0.04

Nlocal:    62.5 ave 71 max 54 min
Histogram: 2 2 0 1 3 1 1 4 1 1
Nghost:    1845.06 ave 1870 max 1825 min
Histogram: 2 1 4 1 1 1 2 2 1 1
Neighs:    0 ave 0 max 0 min
Histogram: 16 0 0 0 0 0 0 0 0 0
FullNghs:  18714.9 ave 21123 max 15933 min
Histogram: 2 0 2 1 1 3 2 2 2 1

Total # of neighbors = 299438
Ave neighs/atom = 299.438
Neighbor list builds = 1000
Dangerous builds not checked
Setting up Verlet run ...
  Unit style    : real
  Current step  : 25000
  Time step     : 1
Per MPI rank memory allocation (min/avg/max) = 4.578 | 4.579 | 4.58 Mbytes
Step Temp E_pair E_mol TotEng Press Volume Lx Ly Lz S/CPU 
   25000    303.21644   -10489.089            0   -9586.1625   -15035.206    789.07203    9.2407144    9.2407144    9.2407144            0 
   25100    297.96257   -10478.335            0   -9591.0536   -5292.3439      789.344     9.241776     9.241776     9.241776    45.008409 
   25200    301.89875   -10495.593            0   -9596.5898   -12278.596    788.83048    9.2397714    9.2397714    9.2397714    45.909603 
   25300    309.86696   -10525.081            0   -9602.3502   -10561.592    787.54948    9.2347672    9.2347672    9.2347672     46.64895 
   25400    302.96393   -10509.462            0   -9607.2874    569.29304    786.02449    9.2288026    9.2288026    9.2288026    45.947829 
   25500    295.04133    -10491.77            0   -9613.1876    2418.0397    784.57884    9.2231413    9.2231413    9.2231413    42.434722 
   25600    292.76726   -10492.097            0   -9620.2866    10638.232    783.39777     9.218511     9.218511     9.218511    41.202713 
   25700    306.58538   -10543.515            0   -9630.5565    11227.182    782.66738    9.2156452    9.2156452    9.2156452    36.841108 
   25800    290.93379   -10508.081            0   -9641.7298    1134.1763    782.66753    9.2156458    9.2156458    9.2156458    46.897297 
   25900    294.32716   -10530.906            0   -9654.4497   -990.68473     782.9315    9.2166817    9.2166817    9.2166817    33.848996 
   26000    289.86702   -10528.678            0   -9665.5039    14847.441    783.38449    9.2184589    9.2184589    9.2184589    37.183939 
Loop time of 23.994 on 16 procs for 1000 steps with 1000 atoms

Performance: 3.601 ns/day, 6.665 hours/ns, 41.677 timesteps/s
94.3% CPU use with 16 MPI tasks x no OpenMP threads

MPI task timing breakdown:
Section |  min time  |  avg time  |  max time  |%varavg| %total
---------------------------------------------------------------
Pair    | 1.6648     | 1.7674     | 1.8795     |   4.3 |  7.37
Neigh   | 0.66867    | 0.70218    | 0.73276    |   2.3 |  2.93
Comm    | 0.72394    | 0.86373    | 0.99978    |   8.0 |  3.60
Output  | 12.835     | 13.322     | 20.567     |  51.3 | 55.52
Modify  | 0.08517    | 7.3303     | 7.8177     |  69.1 | 30.55
Other   |            | 0.008798   |            |       |  0.04

Nlocal:    62.5 ave 70 max 58 min
Histogram: 3 2 2 2 1 3 0 2 0 1
Nghost:    1855.06 ave 1871 max 1837 min
Histogram: 3 1 0 1 2 1 2 3 2 1
Neighs:    0 ave 0 max 0 min
Histogram: 16 0 0 0 0 0 0 0 0 0
FullNghs:  18846.4 ave 21073 max 17242 min
Histogram: 3 0 3 2 2 2 1 2 0 1

Total # of neighbors = 301542
Ave neighs/atom = 301.542
Neighbor list builds = 1000
Dangerous builds not checked
Setting up Verlet run ...
  Unit style    : real
  Current step  : 26000
  Time step     : 1
Per MPI rank memory allocation (min/avg/max) = 4.578 | 4.579 | 4.58 Mbytes
Step Temp E_pair E_mol TotEng Press Volume Lx Ly Lz S/CPU 
   26000    289.86702   -10528.678            0   -9665.5039    14847.441    783.38449    9.2184589    9.2184589    9.2184589            0 
   26100    311.23952   -10603.588            0   -9676.7695   -8534.6559    784.32345    9.2221405    9.2221405    9.2221405    41.817071 
   26200    285.51787   -10532.752            0   -9682.5284    -11582.63    785.02986    9.2249083    9.2249083    9.2249083    44.191816 
   26300    282.25464   -10528.036            0   -9687.5297   -14073.473    785.02902     9.224905     9.224905     9.224905    35.290611 
   26400    294.58362   -10566.123            0   -9688.9037    8400.8113    784.20761    9.2216865    9.2216865    9.2216865    43.424047 
   26500    288.03383   -10546.057            0   -9688.3416    2622.9561     782.9361    9.2166997    9.2166997    9.2166997    28.985164 
   26600    283.50482   -10529.419            0   -9685.1898    10305.447    781.96587     9.212891     9.212891     9.212891    42.860259 
   26700    282.57005    -10524.13            0    -9682.685    6596.9379    781.76885    9.2121172    9.2121172    9.2121172    35.313121 
   26800    294.83219   -10557.401            0   -9679.4412    11305.986    782.29771     9.214194     9.214194     9.214194    49.382308 
   26900    294.98282   -10554.507            0   -9676.0984    3192.7251    783.34233    9.2182935    9.2182935    9.2182935     42.49965 
   27000    295.70034   -10551.819            0   -9671.2741    6078.0719    784.67149    9.2235044    9.2235044    9.2235044    39.556947 
Loop time of 25.3117 on 16 procs for 1000 steps with 1000 atoms

Performance: 3.413 ns/day, 7.031 hours/ns, 39.507 timesteps/s
94.3% CPU use with 16 MPI tasks x no OpenMP threads

MPI task timing breakdown:
Section |  min time  |  avg time  |  max time  |%varavg| %total
---------------------------------------------------------------
Pair    | 1.7232     | 1.7883     | 1.875      |   3.3 |  7.07
Neigh   | 0.6789     | 0.70817    | 0.74343    |   2.2 |  2.80
Comm    | 0.72689    | 0.84111    | 0.93227    |   6.4 |  3.32
Output  | 14.764     | 15.215     | 21.895     |  44.2 | 60.11
Modify  | 0.066729   | 6.7507     | 7.2044     |  66.4 | 26.67
Other   |            | 0.008772   |            |       |  0.03

Nlocal:    62.5 ave 68 max 54 min
Histogram: 1 0 1 0 2 2 5 2 2 1
Nghost:    1863.56 ave 1885 max 1848 min
Histogram: 3 3 0 1 3 1 2 2 0 1
Neighs:    0 ave 0 max 0 min
Histogram: 16 0 0 0 0 0 0 0 0 0
FullNghs:  18814.2 ave 20503 max 16025 min
Histogram: 1 0 1 1 1 2 4 1 4 1

Total # of neighbors = 301028
Ave neighs/atom = 301.028
Neighbor list builds = 1000
Dangerous builds not checked
Setting up Verlet run ...
  Unit style    : real
  Current step  : 27000
  Time step     : 1
Per MPI rank memory allocation (min/avg/max) = 4.578 | 4.579 | 4.58 Mbytes
Step Temp E_pair E_mol TotEng Press Volume Lx Ly Lz S/CPU 
   27000    295.70034   -10551.819            0   -9671.2741    6078.0719    784.67149    9.2235044    9.2235044    9.2235044            0 
   27100    298.25453   -10555.356            0   -9667.2049    7767.7872     786.3391    9.2300338    9.2300338    9.2300338    53.304245 
   27200     294.4631   -10537.134            0   -9660.2735   -16359.654    788.00215    9.2365361    9.2365361    9.2365361    55.143441 
   27300    287.10039   -10508.701            0    -9653.765   -5841.4506    789.10613    9.2408476    9.2408476    9.2408476    38.246191 
   27400    296.66828   -10529.804            0   -9646.3767   -536.25908    789.54043    9.2425425    9.2425425    9.2425425    50.169717 
   27500    299.39877   -10531.875            0   -9640.3169   -3803.3978    790.03016    9.2444531    9.2444531    9.2444531    46.703396 
   27600    297.98371   -10520.686            0   -9633.3418   -1669.5903     790.2965    9.2454918    9.2454918    9.2454918    48.457351 
   27700    289.86368   -10489.914            0    -9626.749   -17523.272    790.07585    9.2446313    9.2446313    9.2446313    42.342621 
   27800     298.5849   -10509.816            0   -9620.6811    16608.257    788.89769    9.2400339    9.2400339    9.2400339    39.434232 
   27900    301.43901   -10510.241            0    -9612.607   -2126.1196    787.38946    9.2341416    9.2341416    9.2341416    36.191383 
   28000    306.80375   -10518.318            0   -9604.7084   -2074.0667    785.61349    9.2271938    9.2271938    9.2271938    41.297418 
Loop time of 22.5843 on 16 procs for 1000 steps with 1000 atoms

Performance: 3.826 ns/day, 6.273 hours/ns, 44.279 timesteps/s
[...]
 1136700    308.54601   -11206.363            0   -10287.565    3143.1421    793.90608    9.2595464    9.2595464    9.2595464    46.207227 
 1136800    303.47092   -11193.816            0   -10290.131    20046.162    792.36128    9.2535366    9.2535366    9.2535366    46.867308 
 1136900    299.97283   -11187.741            0   -10294.473    14909.241    791.97479    9.2520318    9.2520318    9.2520318    32.136475 
 1137000    297.31941   -11185.535            0   -10300.168    11169.083    792.91297    9.2556838    9.2556838    9.2556838    44.096518 
 1137100    302.41697   -11208.774            0   -10308.228    7778.9978    795.06037    9.2640318    9.2640318    9.2640318    45.007616 
 1137200    307.61139    -11232.55            0   -10316.536   -3035.7347    797.83039     9.274778     9.274778     9.274778    41.298341 
 1137300    302.76798   -11225.796            0   -10324.205   -5515.2014    800.48982    9.2850719    9.2850719    9.2850719    47.365718 
 1137400    291.65184   -11198.204            0   -10329.714   -12498.853    802.28981    9.2920262    9.2920262    9.2920262    42.387537 
 1137500    295.23818   -11215.823            0   -10336.654   -16229.337    802.63792    9.2933699    9.2933699    9.2933699    43.417154 
 1137600    293.89447   -11217.329            0   -10342.161   -18994.335    801.49898    9.2889721    9.2889721    9.2889721    49.029474 
 1137700    303.60876   -11251.164            0   -10347.069   -12856.349    798.94514    9.2790957    9.2790957    9.2790957    37.442502 
 1137800    302.78466   -11250.919            0   -10349.278   -770.71676    795.44012    9.2655065    9.2655065    9.2655065    39.112629 
 1137900    295.04793   -11228.287            0   -10349.685    7248.3771    791.81287    9.2514013    9.2514013    9.2514013    37.378775 
 1138000    296.84337   -11233.578            0   -10349.629    27700.223    789.00514    9.2404533    9.2404533    9.2404533    49.324217 
 1138100    302.34541   -11250.803            0    -10350.47    19002.936    787.68466    9.2352955    9.2352955    9.2352955     43.61747 
 1138200    291.23109   -11216.819            0   -10349.583    23390.637    788.05908    9.2367586    9.2367586    9.2367586    28.371214 
 1138300    296.16052   -11231.707            0   -10349.791    13088.983    790.35778    9.2457308    9.2457308    9.2457308    49.402446 
 1138400    288.64712   -11206.088            0   -10346.546    5647.1529    794.05497    9.2601251    9.2601251    9.2601251    40.958881 
 1138500    290.03961   -11205.831            0   -10342.142   -7245.6208    798.32527    9.2766953    9.2766953    9.2766953    45.699034 
 1138600    296.71588    -11218.48            0   -10334.911   -21034.578    802.16482    9.2915436    9.2915436    9.2915436     49.44891 
 1138700    298.74403   -11214.797            0   -10325.188   -25554.804    804.59197    9.3009055    9.3009055    9.3009055    38.457145 
 1138800    294.88328    -11193.32            0   -10315.208   -28347.975     805.1375    9.3030071    9.3030071    9.3030071    45.620728 
 1138900    298.81965   -11195.494            0    -10305.66   -15596.435    803.69875    9.2974624    9.2974624    9.2974624    48.112147 
 1139000    296.02791   -11178.049            0   -10296.529    -9831.856    800.58503      9.28544      9.28544      9.28544    49.272842 
 1139100    306.87236   -11202.883            0    -10289.07    3292.7915    796.32908    9.2689568    9.2689568    9.2689568    49.364795 
 1139200    296.32359   -11162.543            0   -10280.142    16438.995    792.02155    9.2522139    9.2522139    9.2522139    36.035152 
 1139300     316.6707   -11218.071            0   -10275.079    34338.585    788.73691    9.2394061    9.2394061    9.2394061    53.571594 
 1139400    309.92731   -11193.292            0   -10270.382    35414.754    787.43032    9.2343014    9.2343014    9.2343014    40.875492 
 1139500    312.61643   -11200.599            0   -10269.681    29686.173    788.52186    9.2385663    9.2385663    9.2385663    34.862206 
 1139600    302.49178     -11172.6            0   -10271.831    22750.931    791.64993    9.2507666    9.2507666    9.2507666    36.986692 
 1139700     303.9358   -11181.947            0   -10276.878    11883.218    796.04769    9.2678649    9.2678649    9.2678649     39.71684 
 1139800    305.33115   -11192.951            0   -10283.727   -18093.581    800.84717    9.2864534    9.2864534    9.2864534    36.908838 
 1139900    304.47373   -11197.158            0   -10290.487    -26470.56    804.67513    9.3012259    9.3012259    9.3012259    27.317379 
 1140000    290.67852   -11164.801            0    -10299.21   -28907.392    806.70497    9.3090403    9.3090403    9.3090403    41.520898 
 1140100    302.85223   -11212.116            0   -10310.274    -29331.23    806.62271    9.3087239    9.3087239    9.3087239    40.304137 
 1140200     306.6591   -11233.819            0    -10320.64   -25361.362    804.57251    9.3008305    9.3008305    9.3008305    35.657638 
 1140300     304.2333   -11237.702            0   -10331.747   -21172.266    800.79165    9.2862387    9.2862387    9.2862387    37.524353 
 1140400    290.67988   -11204.959            0   -10339.364    3777.6991    796.01256    9.2677286    9.2677286    9.2677286    40.434955 
 1140500    296.70589   -11229.794            0   -10346.254    16654.904    791.58465    9.2505124    9.2505124    9.2505124    39.714247 
 1140600    297.64035   -11236.979            0   -10350.657    23260.516    788.44354    9.2382604    9.2382604    9.2382604     26.50805 
 1140700    296.39023   -11237.547            0   -10354.948    21971.221    787.12651    9.2331136    9.2331136    9.2331136    51.670192 
 1140800    292.79635   -11229.397            0   -10357.499    33498.436    787.78036    9.2356695    9.2356695    9.2356695    31.185427 
 1140900    298.46796    -11248.95            0   -10360.163    22614.113    790.21232    9.2451636    9.2451636    9.2451636    42.215469 
 1141000    298.41116   -11249.953            0   -10361.335   -1543.4522    793.83534    9.2592713    9.2592713    9.2592713    34.439547 
 1141100    293.80818   -11235.378            0   -10360.467   -2314.1333    797.64655    9.2740656    9.2740656    9.2740656    42.666181 
 1141200    301.34956   -11255.372            0   -10358.004   -15798.704    800.79762    9.2862618    9.2862618    9.2862618    40.720443 
 1141300     289.1164   -11214.326            0   -10353.387   -17202.203    802.53567    9.2929753    9.2929753    9.2929753    43.129911 
 1141400    296.47565   -11231.967            0   -10349.113   -20649.179     802.5163    9.2929005    9.2929005    9.2929005    47.574505 
 1141500    295.52746   -11223.215            0   -10343.184   -11165.022    800.91241    9.2867055    9.2867055    9.2867055    36.120571 
 1141600    308.29709   -11255.036            0   -10336.979    -3442.885    798.38963    9.2769446    9.2769446    9.2769446    36.600895 
 1141700    301.59047   -11228.158            0   -10330.073   -3295.1349    795.50656    9.2657644    9.2657644    9.2657644    38.872934 
 1141800    294.38941   -11200.374            0   -10323.732    17748.428    792.99187    9.2559907    9.2559907    9.2559907    43.376217 
 1141900    306.05395   -11230.132            0   -10318.756    16544.114    791.47212     9.250074     9.250074     9.250074    40.743068 
 1142000    290.12787   -11177.336            0   -10313.385    16500.253     791.2634    9.2492608    9.2492608    9.2492608    32.818751 
 1142100    300.77342   -11207.512            0    -10311.86    12123.387    792.23538    9.2530465    9.2530465    9.2530465    39.928379 
 1142200    305.96541   -11220.985            0   -10309.872    1844.9911    793.99221    9.2598812    9.2598812    9.2598812    32.831121 
 1142300    308.39577   -11227.713            0   -10309.363   -3558.0401    796.08673    9.2680164    9.2680164    9.2680164    39.316726 
 1142400    303.43107   -11211.524            0   -10307.958   -7373.4188     798.2392    9.2763619    9.2763619    9.2763619    45.878839 
 1142500    296.40717   -11190.124            0   -10307.474   -12583.795    800.03071    9.2832965    9.2832965    9.2832965    39.434341 
 1142600    299.12038   -11197.645            0   -10306.915   -9226.3918    801.01195    9.2870902    9.2870902    9.2870902    40.609119 
 1142700    311.84906   -11236.372            0   -10307.739   -18450.321    800.98073    9.2869696    9.2869696    9.2869696     38.07444 
 1142800    296.36063    -11189.16            0   -10306.649   -8057.7644    799.76793    9.2822799    9.2822799    9.2822799    32.109268 
 1142900    296.04552   -11187.761            0   -10306.188    -9132.215    797.70564    9.2742946    9.2742946    9.2742946    51.318344 
 1143000    300.30869   -11200.224            0   -10305.956     6295.636    795.36247     9.265205     9.265205     9.265205     34.56783 
 1143100    294.10629   -11181.835            0   -10306.036    -2011.198     793.3156    9.2572501    9.2572501    9.2572501    46.374883 
 1143200    305.14357   -11215.204            0   -10306.539    10361.717    792.07488    9.2524216    9.2524216    9.2524216    36.667978 
 1143300    305.43196   -11217.197            0   -10307.673    11755.156     791.7647    9.2512137    9.2512137    9.2512137    44.556625 
 1143400    304.84922   -11217.452            0   -10309.663    18649.992    792.36482    9.2535504    9.2535504    9.2535504    34.017925 
 1143500    297.04918   -11195.847            0   -10311.285    9813.9721    793.93673    9.2596655    9.2596655    9.2596655    36.937739 
 1143600    299.25185   -11203.784            0   -10312.663   -1164.8019    796.11718    9.2681346    9.2681346    9.2681346    44.863934 
 1143700    300.16924   -11210.737            0   -10316.884   -3559.4062    798.36465    9.2768478    9.2768478    9.2768478    31.508596 
 1143800    284.38377   -11164.228            0   -10317.382   -7502.8602    800.34912    9.2845279    9.2845279    9.2845279    43.946182 
 1143900    290.38341   -11187.347            0   -10322.634   -9101.6356    801.43946    9.2887421    9.2887421    9.2887421    40.055772 
 1144000    298.67467   -11218.559            0   -10329.157   -14809.254    801.51426    9.2890311    9.2890311    9.2890311    38.296051 
 1144100    297.67071   -11223.311            0   -10336.898   -9213.0128    800.46583    9.2849791    9.2849791    9.2849791    38.588991 
 1144200    278.51258   -11171.595            0   -10342.232   -5304.7379    798.46435     9.277234     9.277234     9.277234    41.872531 
 1144300    296.68285   -11235.051            0    -10351.58    5105.4821    796.03209    9.2678044    9.2678044    9.2678044    39.831543 
 1144400    294.29855   -11233.853            0   -10357.482    9566.2931    793.57618    9.2582636    9.2582636    9.2582636    51.391869 
 1144500    295.18875   -11240.607            0   -10361.585    13381.416    791.50467    9.2502008    9.2502008    9.2502008    42.168931 
 1144600    294.96829   -11243.047            0   -10364.682    16177.218    790.37942    9.2458152    9.2458152    9.2458152    34.310155 
 1144700    304.60207   -11274.555            0   -10367.502     13231.04    790.42027    9.2459745    9.2459745    9.2459745    48.488776 
 1144800    298.72049    -11256.59            0   -10367.052    13118.768    791.67383    9.2508597    9.2508597    9.2508597    37.268851 
 1144900    295.36474   -11244.781            0   -10365.236     10403.33    794.04745    9.2600959    9.2600959    9.2600959    45.787518 
 1145000    290.66479   -11228.254            0   -10362.703   -3699.0031    796.92937    9.2712853    9.2712853    9.2712853    51.746306 
 1145100    286.03555   -11208.155            0    -10356.39   -7225.8181    799.53614    9.2813831    9.2813831    9.2813831     35.45091 
 1145200    298.99487   -11239.472            0   -10349.116   -18340.263     801.4177    9.2886581    9.2886581    9.2886581    47.965039 
 1145300    304.86278    -11247.44            0   -10339.611   -13603.318    802.12092    9.2913741    9.2913741    9.2913741     38.19298 
 1145400    296.71728   -11210.266            0   -10326.692    -21021.83    801.37241    9.2884831    9.2884831    9.2884831    45.631915 
 1145500    290.91347   -11182.005            0   -10315.714   -9737.3566    799.13066    9.2798139    9.2798139    9.2798139    39.911061 
 1145600    299.86914   -11198.846            0   -10305.887   -5112.6844    796.14906    9.2682583    9.2682583    9.2682583     46.34315 
 1145700    300.12212    -11191.46            0   -10297.748    8375.3124    793.15924    9.2566419    9.2566419    9.2566419    45.781659 
 1145800    306.60087   -11205.516            0   -10292.511    20605.872    790.86893    9.2477235    9.2477235    9.2477235    36.997956 
 1145900    306.07433   -11199.128            0   -10287.691    25322.964    789.98155    9.2442635    9.2442635    9.2442635    29.857569 
 1146000    300.29475   -11179.997            0    -10285.77    23614.767    790.85268    9.2476602    9.2476602    9.2476602    36.130042 
 1146100    301.09652   -11182.598            0   -10285.984    12008.686    793.35876     9.257418     9.257418     9.257418    43.736888 
 1146200    297.99089   -11173.549            0   -10286.183   -11424.003    796.73266    9.2705224    9.2705224    9.2705224    40.380907 
 1146300    301.70726   -11186.055            0   -10287.622   -12129.726    799.89804    9.2827833    9.2827833    9.2827833    44.490152 
 1146400    291.65907   -11157.003            0   -10288.492     -15120.2    802.21615    9.2917418    9.2917418    9.2917418    35.595426 
 1146500    310.11259   -11215.645            0   -10292.183   -26720.677    803.41277    9.2963595    9.2963595    9.2963595    44.431772 
 1146600    296.72923   -11179.094            0   -10295.485   -18018.451     803.1334    9.2952818    9.2952818    9.2952818    38.352768 
 1146700    299.03101   -11189.875            0   -10299.412   -16569.456    801.60167    9.2893688    9.2893688    9.2893688    41.516198 
 1146800     297.6342    -11192.03            0   -10305.726    50.244461     799.2102    9.2801217    9.2801217    9.2801217    31.964764 
 1146900     300.1017   -11206.881            0   -10313.229    4689.0118    796.41125    9.2692756    9.2692756    9.2692756    43.443312 
 1147000    305.68959    -11232.27            0   -10321.979    11898.901    793.82515    9.2592317    9.2592317    9.2592317    45.193311 
 1147100    293.56836   -11207.305            0   -10333.108    17137.696     792.0589    9.2523594    9.2523594    9.2523594    35.205947 
 1147200    282.63539   -11189.012            0   -10347.372    14703.884    791.22748    9.2491209    9.2491209    9.2491209    28.576283 
 1147300    287.42001   -11218.233            0   -10362.346    15624.389    791.37568    9.2496983    9.2496983    9.2496983    41.708778 
 1147400    287.64297   -11232.928            0   -10376.377    2753.4457    792.33443    9.2534321    9.2534321    9.2534321    49.579814 
 1147500    298.43888   -11273.639            0   -10384.939    11360.749    793.77379     9.259032     9.259032     9.259032    40.318481 
 1147600    295.69649   -11270.619            0   -10390.085   -3789.4593     795.5908    9.2660915    9.2660915    9.2660915    45.231975 
 1147700     283.6179    -11234.69            0   -10390.124    1687.2824    797.20113     9.272339     9.272339     9.272339     38.56468 
 1147800    283.82938   -11233.143            0   -10387.948   -6152.5107    798.37586    9.2768913    9.2768913    9.2768913    39.024773 
 1147900    284.40653    -11231.81            0   -10384.896   -10168.552    799.10038    9.2796966    9.2796966    9.2796966    36.651903 
 1148000    284.91178   -11229.454            0   -10381.036   -16000.827    799.19419    9.2800598    9.2800598    9.2800598    44.467171 
 1148100    284.99007   -11222.516            0   -10373.864   -13449.527    798.44277    9.2771504    9.2771504    9.2771504    42.045272 
 1148200    297.18523   -11253.533            0   -10368.566   -2289.1684     797.0371     9.271703     9.271703     9.271703    36.639231 
 1148300    289.95302   -11225.559            0   -10362.129   -3085.3479    795.32912    9.2650755    9.2650755    9.2650755    44.081781 
 1148400    309.78643   -11279.043            0   -10356.552    7627.9697    793.71136    9.2587892    9.2587892    9.2587892    34.649706 
 1148500    292.99794    -11220.54            0   -10348.042    5119.1877    792.75485    9.2550685    9.2550685    9.2550685       47.817 
 1148600    295.33407   -11221.066            0   -10341.611    14949.411    792.44593    9.2538662    9.2538662    9.2538662    40.366147 
 1148700    297.74125   -11222.726            0   -10336.103    9080.1138    792.91529    9.2556928    9.2556928    9.2556928    49.873835 
 1148800    289.64584   -11193.659            0   -10331.143    10310.832    794.21884    9.2607621    9.2607621    9.2607621    45.129272 
 1148900    292.71071   -11198.736            0   -10327.094   -719.67674    796.09434     9.268046     9.268046     9.268046    28.544427 
 1149000     294.5597   -11199.186            0   -10322.037    -8687.664    798.08928    9.2757811    9.2757811    9.2757811     45.83675 
 1149100    292.82889   -11189.345            0    -10317.35   -17699.768    799.77731    9.2823162    9.2823162    9.2823162    32.593053 
 1149200    307.45989   -11226.614            0   -10311.051    -11854.48      800.799    9.2862672    9.2862672    9.2862672    45.165283 
 1149300    307.70172   -11222.343            0    -10306.06   -8356.3425    800.82438    9.2863653    9.2863653    9.2863653    49.235915 
 1149400    295.14695   -11179.778            0   -10300.881   -7099.5871    799.90793    9.2828215    9.2828215    9.2828215    36.815652 
 1149500    301.25987   -11195.697            0   -10298.597   -5003.3993    798.18125    9.2761374    9.2761374    9.2761374    53.528662 
 1149600    304.74925   -11203.717            0   -10296.226   -1164.9143    796.07167     9.267958     9.267958     9.267958    38.209073 
 1149700    308.72882   -11213.332            0   -10293.991    12004.681    794.12536    9.2603988    9.2603988    9.2603988    48.908769 
 1149800     306.4758   -11204.007            0   -10291.374    11707.384     792.9224    9.2557204    9.2557204    9.2557204    47.311049 
 1149900    298.42493   -11179.219            0    -10290.56    9628.8429    792.52131    9.2541596    9.2541596    9.2541596    36.276208 
 1150000    306.70687   -11205.162            0   -10291.841    14751.477    792.90096     9.255637     9.255637     9.255637    35.774168 
Loop time of 2542.63 on 16 procs for 100000 steps with 1000 atoms

Performance: 3.398 ns/day, 7.063 hours/ns, 39.329 timesteps/s
94.2% CPU use with 16 MPI tasks x no OpenMP threads

MPI task timing breakdown:
Section |  min time  |  avg time  |  max time  |%varavg| %total
---------------------------------------------------------------
Pair    | 149.91     | 157.99     | 163.46     |  34.8 |  6.21
Neigh   | 66.229     | 69.459     | 73.593     |  25.5 |  2.73
Comm    | 71.464     | 81.124     | 92.433     |  69.9 |  3.19
Output  | 1566.4     | 1608.2     | 2226.7     | 398.2 | 63.25
Modify  | 6.4582     | 625        | 666.8      | 638.8 | 24.58
Other   |            | 0.8631     |            |       |  0.03

Nlocal:    62.5 ave 68 max 59 min
Histogram: 3 2 3 2 1 0 1 1 2 1
Nghost:    1828.19 ave 1850 max 1813 min
Histogram: 2 2 3 2 1 2 1 1 1 1
Neighs:    0 ave 0 max 0 min
Histogram: 16 0 0 0 0 0 0 0 0 0
FullNghs:  18618.2 ave 20472 max 17492 min
Histogram: 3 3 3 1 1 1 1 0 2 1

Total # of neighbors = 297892
Ave neighs/atom = 297.892
Neighbor list builds = 100000
Dangerous builds not checked
Total wall time: 7:58:34
