LAMMPS (16 Mar 2018)
Reading data file ...
  orthogonal box = (-4.73061 -4.73061 -4.73061) to (4.73061 4.73061 4.73061)
  2 by 2 by 4 MPI processor grid
  reading atoms ...
  1000 atoms
Reading potential file /home/fs01/ajm529/lammps-16Mar18/potentials/sw_potentials/AG/eps2.23.sw with DATE: 2008-01-29
Neighbor list info ...
  update every 1 steps, delay 0 steps, check no
  max neighbors/atom: 2000, page size: 100000
  master list distance cutoff = 3.836
  ghost atom cutoff = 3.836
  binsize = 1.918, bins = 5 5 5
  1 neighbor lists, perpetual/occasional/extra = 1 0 0
  (1) pair sw, perpetual
      attributes: full, newton on
      pair build: full/bin/atomonly
      stencil: full/bin/3d
      bin: standard
Setting up Verlet run ...
  Unit style    : real
  Current step  : 0
  Time step     : 1
Per MPI rank memory allocation (min/avg/max) = 3.518 | 3.519 | 3.52 Mbytes
Step Temp E_pair E_mol TotEng Press Volume Lx Ly Lz S/CPU 
       0          300   -10042.459            0   -9149.1099   -38442.698    846.91802    9.4612196    9.4612196    9.4612196            0 
     100     330.5285   -10139.775            0   -9155.5176   -42535.597    845.06158    9.4543016    9.4543016    9.4543016    35.291998 
     200    343.24435   -10193.943            0   -9171.8196    -39776.49    839.59349    9.4338657    9.4338657    9.4338657    38.769998 
     300    344.75379   -10223.137            0   -9196.5187     -34099.7    831.47012    9.4033416    9.4033416    9.4033416    34.490864 
     400    335.96719   -10223.492            0   -9223.0387    -16724.61    821.62504    9.3660806    9.3660806    9.3660806     35.13072 
     500     336.7313   -10245.457            0   -9242.7283    4368.8264    811.88651    9.3289287    9.3289287    9.3289287    27.883274 
     600    342.03223   -10280.745            0   -9262.2318    2289.5512    803.46417    9.2965578    9.2965578    9.2965578    40.909973 
     700    331.58789   -10268.398            0   -9280.9863    12000.559    796.93297    9.2712992    9.2712992    9.2712992    31.393344 
     800    330.54403   -10287.495            0   -9303.1911   -2314.3791     792.1587    9.2527479    9.2527479    9.2527479    35.470802 
     900    322.02817   -10284.418            0   -9325.4728    18211.634    788.79718    9.2396414    9.2396414    9.2396414    32.470087 
    1000    331.79929   -10338.622            0   -9350.5802    4987.1892    786.70359    9.2314597    9.2314597    9.2314597    38.229781 
Loop time of 28.8897 on 16 procs for 1000 steps with 1000 atoms

Performance: 2.991 ns/day, 8.025 hours/ns, 34.614 timesteps/s
52.4% CPU use with 16 MPI tasks x no OpenMP threads

MPI task timing breakdown:
Section |  min time  |  avg time  |  max time  |%varavg| %total
---------------------------------------------------------------
Pair    | 1.9188     | 2.1122     | 2.5473     |   9.8 |  7.31
Neigh   | 0.67299    | 0.74695    | 0.8847     |   5.3 |  2.59
Comm    | 4.0018     | 4.5142     | 4.864      |   9.4 | 15.63
Output  | 14.432     | 14.842     | 20.586     |  38.5 | 51.38
Modify  | 0.86014    | 6.6651     | 7.2666     |  58.3 | 23.07
Other   |            | 0.008818   |            |       |  0.03

Nlocal:    62.5 ave 68 max 57 min
Histogram: 1 0 4 2 2 2 1 0 2 2
Nghost:    1866.38 ave 1895 max 1843 min
Histogram: 2 2 2 1 2 2 2 0 2 1
Neighs:    0 ave 0 max 0 min
Histogram: 16 0 0 0 0 0 0 0 0 0
FullNghs:  18754 ave 20408 max 16943 min
Histogram: 1 0 2 3 3 1 2 0 3 1

Total # of neighbors = 300064
Ave neighs/atom = 300.064
Neighbor list builds = 1000
Dangerous builds not checked
Setting up Verlet run ...
  Unit style    : real
  Current step  : 1000
  Time step     : 1
Per MPI rank memory allocation (min/avg/max) = 3.769 | 4.426 | 4.579 Mbytes
Step Temp E_pair E_mol TotEng Press Volume Lx Ly Lz S/CPU 
    1000    331.79929   -10338.622            0   -9350.5802    4987.1892    786.70359    9.2314597    9.2314597    9.2314597            0 
    1100    328.88087   -10353.093            0   -9373.7417    12718.841    785.38341     9.226293     9.226293     9.226293    30.356028 
    1200    321.14424   -10351.348            0   -9395.0354    12721.927    785.10441    9.2252003    9.2252003    9.2252003     44.09598 
    1300    319.76464   -10369.561            0   -9417.3565    19457.341    785.64009     9.227298     9.227298     9.227298    21.529795 
    1400    325.11439    -10405.98            0   -9437.8449    17432.152    786.84346    9.2320067    9.2320067    9.2320067    38.835912 
    1500    326.30854   -10431.331            0   -9459.6396     3939.071    788.37505    9.2379929    9.2379929    9.2379929    24.401535 
    1600     320.7381   -10434.893            0   -9479.7902     22732.64    790.63057    9.2467944    9.2467944    9.2467944    23.483551 
    1700    304.81923   -10407.354            0   -9499.6547    5746.5751    793.40665    9.2576042    9.2576042    9.2576042    36.094158 
    1800    308.52905   -10435.726            0   -9516.9789    1148.3871    796.05454    9.2678915    9.2678915    9.2678915     39.42201 
    1900    302.44999   -10433.099            0   -9532.4545   -7108.8163    798.41461    9.2770413    9.2770413    9.2770413    19.099031 
    2000    300.21659   -10440.455            0   -9546.4611   -34742.286    800.08238    9.2834963    9.2834963    9.2834963    26.178703 
Loop time of 35.5012 on 16 procs for 1000 steps with 1000 atoms

Performance: 2.434 ns/day, 9.861 hours/ns, 28.168 timesteps/s
51.6% CPU use with 16 MPI tasks x no OpenMP threads

MPI task timing breakdown:
Section |  min time  |  avg time  |  max time  |%varavg| %total
---------------------------------------------------------------
Pair    | 2.04       | 2.2401     | 2.6582     |   9.7 |  6.31
Neigh   | 0.70049    | 0.75776    | 0.89249    |   5.2 |  2.13
Comm    | 4.1013     | 4.59       | 5.0392     |  10.6 | 12.93
Output  | 17.747     | 18.347     | 26.944     |  51.8 | 51.68
Modify  | 0.89468    | 9.5576     | 10.356     |  72.5 | 26.92
Other   |            | 0.008886   |            |       |  0.03

Nlocal:    62.5 ave 66 max 57 min
Histogram: 1 1 1 0 2 2 2 4 0 3
Nghost:    1839.69 ave 1864 max 1818 min
Histogram: 2 2 1 1 2 3 2 0 1 2
Neighs:    0 ave 0 max 0 min
Histogram: 16 0 0 0 0 0 0 0 0 0
FullNghs:  18435.9 ave 19628 max 16657 min
Histogram: 1 1 1 0 2 2 2 4 0 3

Total # of neighbors = 294974
Ave neighs/atom = 294.974
Neighbor list builds = 1000
Dangerous builds not checked
Setting up Verlet run ...
  Unit style    : real
  Current step  : 2000
  Time step     : 1
Per MPI rank memory allocation (min/avg/max) = 3.769 | 4.477 | 4.579 Mbytes
Step Temp E_pair E_mol TotEng Press Volume Lx Ly Lz S/CPU 
    2000    300.21659   -10440.455            0   -9546.4611   -34742.286    800.08238    9.2834963    9.2834963    9.2834963            0 
    2100    308.34965   -10476.926            0   -9558.7138   -26550.952    800.18807    9.2839051    9.2839051    9.2839051    19.376729 
    2200    298.44389    -10457.65            0   -9568.9355   -18013.286    798.92338    9.2790115    9.2790115    9.2790115     38.12541 
    2300    304.57981   -10487.022            0   -9580.0352   -13660.288    796.65709    9.2702293    9.2702293    9.2702293    43.581038 
    2400    293.88483   -10464.197            0    -9589.058   -14681.026    793.50246    9.2579769    9.2579769    9.2579769    37.040233 
    2500    299.46946    -10489.57            0   -9597.8015   -9437.9145    789.67694    9.2430752    9.2430752    9.2430752    36.903017 
    2600    299.08741   -10495.407            0   -9604.7753   -8084.2696     785.6137    9.2271947    9.2271947    9.2271947    30.452571 
    2700    301.72755   -10509.475            0    -9610.982    5184.3644    781.32077    9.2103568    9.2103568    9.2103568    40.758183 
    2800    301.07674   -10512.274            0    -9615.719    9675.8338    777.59291    9.1956852    9.1956852    9.1956852    35.452064 
    2900    296.90236   -10504.682            0   -9620.5576     17347.83    775.15652    9.1860711    9.1860711    9.1860711    37.288469 
    3000    296.46477   -10507.926            0   -9625.1048    19460.199    774.14524    9.1820746    9.1820746    9.1820746    26.539884 
Loop time of 30.4958 on 16 procs for 1000 steps with 1000 atoms

Performance: 2.833 ns/day, 8.471 hours/ns, 32.791 timesteps/s
52.3% CPU use with 16 MPI tasks x no OpenMP threads

MPI task timing breakdown:
Section |  min time  |  avg time  |  max time  |%varavg| %total
---------------------------------------------------------------
Pair    | 2.0798     | 2.2361     | 2.5143     |   6.6 |  7.33
Neigh   | 0.70518    | 0.75704    | 0.8661     |   4.2 |  2.48
Comm    | 4.2412     | 4.5705     | 4.9723     |   8.6 | 14.99
Output  | 15.734     | 16.149     | 21.986     |  37.5 | 52.96
Modify  | 0.8784     | 6.7739     | 7.3853     |  58.7 | 22.21
Other   |            | 0.008869   |            |       |  0.03

Nlocal:    62.5 ave 65 max 57 min
Histogram: 1 0 1 0 0 3 3 1 3 4
Nghost:    1868.62 ave 1885 max 1857 min
Histogram: 4 1 2 2 0 2 2 1 0 2
Neighs:    0 ave 0 max 0 min
Histogram: 16 0 0 0 0 0 0 0 0 0
FullNghs:  19065.1 ave 19869 max 17498 min
Histogram: 1 0 1 0 2 3 1 2 2 4

Total # of neighbors = 305042
Ave neighs/atom = 305.042
Neighbor list builds = 1000
Dangerous builds not checked
Setting up Verlet run ...
  Unit style    : real
  Current step  : 3000
  Time step     : 1
Per MPI rank memory allocation (min/avg/max) = 4.578 | 4.578 | 4.579 Mbytes
Step Temp E_pair E_mol TotEng Press Volume Lx Ly Lz S/CPU 
    3000    296.46477   -10507.926            0   -9625.1048    19460.199    774.14524    9.1820746    9.1820746    9.1820746            0 
    3100    288.72855   -10491.909            0   -9632.1247    19107.994    774.87988    9.1849782    9.1849782    9.1849782    33.873394 
    3200     292.9478   -10510.697            0   -9638.3482    11893.836     776.9534    9.1931636    9.1931636    9.1931636    34.183245 
    3300    289.77331   -10506.895            0   -9643.9993   -3090.7753    779.62424    9.2036857    9.2036857    9.2036857    38.230542 
    3400     300.2511   -10543.625            0   -9649.5289    -11595.49    782.14813    9.2136067    9.2136067    9.2136067    37.591034 
    3500    294.91637   -10531.472            0   -9653.2619   -14241.462    783.72073    9.2197776    9.2197776    9.2197776    33.604331 
    3600    294.31649   -10533.845            0    -9657.421   -9739.0662    784.21374    9.2217105    9.2217105    9.2217105    40.600509 
    3700    293.13576   -10532.359            0   -9659.4512   -10349.866    784.18784    9.2216089    9.2216089    9.2216089    31.818405 
    3800     299.1139   -10553.459            0   -9662.7489    -4728.018    783.85428    9.2203013    9.2203013    9.2203013     40.01304 
    3900    301.05875   -10558.549            0   -9662.0479    2654.3532     783.6027    9.2193147    9.2193147    9.2193147    39.924219 
    4000      286.391   -10512.496            0   -9659.6721   -3739.3072    783.15844    9.2175721    9.2175721    9.2175721    38.283235 
Loop time of 27.3514 on 16 procs for 1000 steps with 1000 atoms

Performance: 3.159 ns/day, 7.598 hours/ns, 36.561 timesteps/s
53.1% CPU use with 16 MPI tasks x no OpenMP threads

MPI task timing breakdown:
Section |  min time  |  avg time  |  max time  |%varavg| %total
---------------------------------------------------------------
Pair    | 1.9687     | 2.2702     | 2.7408     |  11.7 |  8.30
Neigh   | 0.67051    | 0.7582     | 0.89781    |   5.8 |  2.77
Comm    | 3.9631     | 4.5095     | 5.0577     |  12.5 | 16.49
Output  | 12.845     | 13.246     | 18.866     |  39.9 | 48.43
Modify  | 0.87334    | 6.5587     | 7.1646     |  57.6 | 23.98
Other   |            | 0.008871   |            |       |  0.03

Nlocal:    62.5 ave 67 max 55 min
Histogram: 1 0 2 0 1 3 2 1 3 3
Nghost:    1862.12 ave 1881 max 1849 min
Histogram: 2 1 2 3 4 1 1 0 1 1
Neighs:    0 ave 0 max 0 min
Histogram: 16 0 0 0 0 0 0 0 0 0
FullNghs:  18820.5 ave 20190 max 16526 min
Histogram: 1 0 2 0 2 1 3 1 3 3

Total # of neighbors = 301128
Ave neighs/atom = 301.128
Neighbor list builds = 1000
Dangerous builds not checked
Setting up Verlet run ...
  Unit style    : real
  Current step  : 4000
  Time step     : 1
Per MPI rank memory allocation (min/avg/max) = 4.578 | 4.578 | 4.579 Mbytes
Step Temp E_pair E_mol TotEng Press Volume Lx Ly Lz S/CPU 
    4000      286.391   -10512.496            0   -9659.6721   -3739.3072    783.15844    9.2175721    9.2175721    9.2175721            0 
    4100    296.97645   -10541.411            0   -9657.0659    -1823.646    782.01944    9.2131014    9.2131014    9.2131014    33.527525 
    4200    310.11916   -10576.055            0   -9652.5733    11626.046    780.61941    9.2076001    9.2076001    9.2076001    40.091299 
    4300     301.9495   -10544.887            0   -9645.7331    11317.389      780.064    9.2054159    9.2054159    9.2054159     33.62858 
    4400    292.03046   -10509.269            0   -9639.6523    5675.0107    780.07406    9.2054554    9.2054554    9.2054554    37.534094 
    4500    295.30407   -10512.315            0   -9632.9503   -5958.6028    779.98712    9.2051134    9.2051134    9.2051134    32.575827 
    4600    294.58172   -10503.383            0   -9626.1687    11554.903    779.82968     9.204494     9.204494     9.204494    39.603192 
    4700    303.75787   -10525.761            0   -9621.2224    9266.6761    780.09015    9.2055187    9.2055187    9.2055187    39.095687 
    4800     298.6065   -10505.076            0   -9615.8771        17789     780.9669    9.2089661    9.2089661    9.2089661    40.648299 
    4900     304.8337   -10519.663            0     -9611.92    10033.299    782.51829      9.21506      9.21506      9.21506     38.01484 
    5000    295.62767   -10487.474            0   -9607.1453   -9611.6422    784.51806    9.2229032    9.2229032    9.2229032    35.570607 
Loop time of 27.1697 on 16 procs for 1000 steps with 1000 atoms

Performance: 3.180 ns/day, 7.547 hours/ns, 36.806 timesteps/s
53.1% CPU use with 16 MPI tasks x no OpenMP threads

MPI task timing breakdown:
Section |  min time  |  avg time  |  max time  |%varavg| %total
---------------------------------------------------------------
Pair    | 2.1197     | 2.2955     | 2.7729     |  10.2 |  8.45
Neigh   | 0.71647    | 0.76502    | 0.91062    |   5.3 |  2.82
Comm    | 3.947      | 4.4976     | 4.9242     |  11.3 | 16.55
Output  | 12.743     | 13.139     | 18.671     |  39.4 | 48.36
Modify  | 0.85826    | 6.4638     | 7.0476     |  57.2 | 23.79
Other   |            | 0.008945   |            |       |  0.03

Nlocal:    62.5 ave 66 max 58 min
Histogram: 3 0 1 1 0 4 1 0 2 4
Nghost:    1848.56 ave 1876 max 1826 min
Histogram: 2 1 2 2 2 2 1 2 1 1
Neighs:    0 ave 0 max 0 min
Histogram: 16 0 0 0 0 0 0 0 0 0
FullNghs:  18810.5 ave 20019 max 17332 min
Histogram: 3 0 1 1 1 3 1 0 3 3

Total # of neighbors = 300968
Ave neighs/atom = 300.968
Neighbor list builds = 1000
Dangerous builds not checked
Setting up Verlet run ...
  Unit style    : real
  Current step  : 5000
  Time step     : 1
Per MPI rank memory allocation (min/avg/max) = 4.578 | 4.578 | 4.579 Mbytes
Step Temp E_pair E_mol TotEng Press Volume Lx Ly Lz S/CPU 
    5000    295.62767   -10487.474            0   -9607.1453   -9611.6422    784.51806    9.2229032    9.2229032    9.2229032            0 
    5100    297.54098   -10489.286            0   -9603.2601   -12917.216    786.60404    9.2310703    9.2310703    9.2310703    32.049932 
    5200    300.49509   -10493.675            0   -9598.8515   -6202.6855    787.99648     9.236514     9.236514     9.236514    32.070623 
    5300    300.03134   -10487.849            0   -9594.4067   -623.44065     788.7155    9.2393225    9.2393225    9.2393225    38.355862 
    5400    288.99358   -10449.287            0   -9588.7136   -8968.6413    788.92945    9.2401578    9.2401578    9.2401578    29.018179 
    5500     301.3543   -10481.739            0   -9584.3574    2514.8498    788.48576    9.2384253    9.2384253    9.2384253    33.370698 
    5600    309.20299   -10499.186            0   -9578.4323    6125.9168    787.74057     9.235514     9.235514     9.235514    37.269656 
    5700    289.62444    -10433.37            0    -9570.918   -21237.705    786.64301    9.2312227    9.2312227    9.2312227    29.445345 
    5800    310.72638   -10490.929            0    -9565.639    8402.8709    784.91733    9.2244675    9.2244675    9.2244675    37.173121 
    5900    294.48337   -10433.136            0    -9556.215    11992.449    783.50831    9.2189446    9.2189446    9.2189446    37.418948 
    6000    303.20955   -10450.551            0   -9547.6446    1535.1437    782.66598    9.2156397    9.2156397    9.2156397    37.314434 
Loop time of 29.4102 on 16 procs for 1000 steps with 1000 atoms

Performance: 2.938 ns/day, 8.169 hours/ns, 34.002 timesteps/s
52.6% CPU use with 16 MPI tasks x no OpenMP threads

MPI task timing breakdown:
Section |  min time  |  avg time  |  max time  |%varavg| %total
---------------------------------------------------------------
Pair    | 2.0799     | 2.2425     | 2.5243     |   6.8 |  7.63
Neigh   | 0.7018     | 0.75538    | 0.86185    |   4.1 |  2.57
Comm    | 4.29       | 4.6088     | 5.0352     |   9.2 | 15.67
Output  | 14.181     | 14.624     | 20.857     |  42.1 | 49.72
Modify  | 0.86708    | 7.1708     | 7.8113     |  61.0 | 24.38
Other   |            | 0.008891   |            |       |  0.03

Nlocal:    62.5 ave 68 max 57 min
Histogram: 2 2 2 0 1 3 1 1 1 3
Nghost:    1861.88 ave 1891 max 1829 min
Histogram: 2 0 1 2 3 4 0 0 1 3
Neighs:    0 ave 0 max 0 min
Histogram: 16 0 0 0 0 0 0 0 0 0
FullNghs:  18863.6 ave 20590 max 17011 min
Histogram: 2 1 2 1 1 3 1 1 2 2

Total # of neighbors = 301818
Ave neighs/atom = 301.818
Neighbor list builds = 1000
Dangerous builds not checked
Setting up Verlet run ...
  Unit style    : real
  Current step  : 6000
  Time step     : 1
Per MPI rank memory allocation (min/avg/max) = 4.578 | 4.578 | 4.579 Mbytes
Step Temp E_pair E_mol TotEng Press Volume Lx Ly Lz S/CPU 
    6000    303.20955   -10450.551            0   -9547.6446    1535.1437    782.66598    9.2156397    9.2156397    9.2156397            0 
    6100     302.4391   -10440.102            0   -9539.4896    15158.058    781.98408    9.2129625    9.2129625    9.2129625    38.553687 
    6200    314.76248   -10469.975            0   -9532.6662    5373.7871    781.88882    9.2125884    9.2125884    9.2125884    34.693318 
    6300    294.27254   -10404.138            0   -9527.8447    5641.2005    782.01011    9.2130647    9.2130647    9.2130647    38.745272 
    6400     311.1506   -10453.327            0   -9526.7739     4805.545    782.03118    9.2131475    9.2131475    9.2131475    37.397331 
    6500    306.46575   -10437.662            0   -9525.0588    4900.5663    782.39958    9.2145939    9.2145939    9.2145939    32.946229 
    6600    307.79891   -10443.075            0   -9526.5022    4671.9297    783.54254    9.2190788    9.2190788    9.2190788    36.425604 
    6700    312.25112   -10462.048            0    -9532.217   -7493.7928    785.14756    9.2253693    9.2253693    9.2253693    38.997233 
    6800    311.96512   -10472.651            0   -9543.6722   -16013.471    786.50861     9.230697     9.230697     9.230697    33.561286 
    6900    304.66537   -10466.284            0   -9559.0424   -6167.7006    787.55865     9.234803     9.234803     9.234803    41.306906 
    7000    292.10216   -10446.916            0    -9577.086   -786.88911     788.5307    9.2386008    9.2386008    9.2386008    38.870194 
Loop time of 27.0493 on 16 procs for 1000 steps with 1000 atoms

Performance: 3.194 ns/day, 7.514 hours/ns, 36.970 timesteps/s
53.1% CPU use with 16 MPI tasks x no OpenMP threads

MPI task timing breakdown:
Section |  min time  |  avg time  |  max time  |%varavg| %total
---------------------------------------------------------------
Pair    | 2.0585     | 2.2904     | 2.7118     |   9.9 |  8.47
Neigh   | 0.68956    | 0.76375    | 0.89412    |   5.3 |  2.82
Comm    | 4.0325     | 4.5189     | 4.9298     |  10.9 | 16.71
Output  | 12.836     | 13.219     | 18.533     |  37.7 | 48.87
Modify  | 0.86795    | 6.2483     | 6.8212     |  55.8 | 23.10
Other   |            | 0.008911   |            |       |  0.03

Nlocal:    62.5 ave 68 max 56 min
Histogram: 3 1 0 1 1 4 0 0 3 3
Nghost:    1841.75 ave 1860 max 1820 min
Histogram: 2 2 1 1 0 1 2 3 1 3
Neighs:    0 ave 0 max 0 min
Histogram: 16 0 0 0 0 0 0 0 0 0
FullNghs:  18720.5 ave 20230 max 16675 min
Histogram: 3 1 0 2 0 1 3 0 1 5

Total # of neighbors = 299528
Ave neighs/atom = 299.528
Neighbor list builds = 1000
Dangerous builds not checked
Setting up Verlet run ...
  Unit style    : real
  Current step  : 7000
  Time step     : 1
Per MPI rank memory allocation (min/avg/max) = 4.578 | 4.578 | 4.579 Mbytes
Step Temp E_pair E_mol TotEng Press Volume Lx Ly Lz S/CPU 
    7000    292.10216   -10446.916            0    -9577.086   -786.88911     788.5307    9.2386008    9.2386008    9.2386008            0 
    7100    297.90454       -10480            0   -9592.8916   -5537.0003    789.39539    9.2419766    9.2419766    9.2419766    39.541595 
    7200    305.79467   -10515.012            0   -9604.4082   -474.42119    790.09306    9.2446984    9.2446984    9.2446984    28.905076 
    7300    298.12838   -10499.462            0   -9611.6866    -16335.83    790.28612    9.2454514    9.2454514    9.2454514    30.885729 
    7400    308.14314   -10535.935            0   -9618.3375   -2769.3988    789.59078     9.242739     9.242739     9.242739    30.977227 
    7500    304.36643   -10528.868            0   -9622.5167    1575.2419    788.60636    9.2388963    9.2388963    9.2388963    36.006559 
    7600    304.47503    -10531.73            0   -9625.0555   -18921.038    787.06284    9.2328647    9.2328647    9.2328647    32.900253 
    7700    290.77609   -10490.859            0   -9624.9774   -8550.3108    785.00594    9.2248146    9.2248146    9.2248146     36.38733 
    7800     300.4564   -10521.576            0   -9626.8681   -5617.9253    782.55861    9.2152182    9.2152182    9.2152182    36.261185 
    7900    303.12691   -10530.313            0   -9627.6529    -2364.539    779.88173    9.2046988    9.2046988    9.2046988    36.911761 
    8000    305.57915   -10537.418            0   -9627.4556    10217.027    777.06369    9.1935986    9.1935986    9.1935986     40.18997 
Loop time of 28.9748 on 16 procs for 1000 steps with 1000 atoms

Performance: 2.982 ns/day, 8.049 hours/ns, 34.513 timesteps/s
52.7% CPU use with 16 MPI tasks x no OpenMP threads

MPI task timing breakdown:
Section |  min time  |  avg time  |  max time  |%varavg| %total
---------------------------------------------------------------
Pair    | 1.9742     | 2.2404     | 2.6763     |  10.6 |  7.73
Neigh   | 0.68297    | 0.75558    | 0.87812    |   5.4 |  2.61
Comm    | 4.1301     | 4.627      | 5.033      |   9.9 | 15.97
Output  | 13.622     | 14.071     | 20.405     |  43.6 | 48.56
Modify  | 0.87541    | 7.2719     | 7.925      |  61.5 | 25.10
Other   |            | 0.008877   |            |       |  0.03

Nlocal:    62.5 ave 66 max 57 min
Histogram: 1 1 1 2 0 3 0 2 4 2
Nghost:    1865.62 ave 1889 max 1846 min
Histogram: 2 0 1 5 2 1 2 1 1 1
Neighs:    0 ave 0 max 0 min
Histogram: 16 0 0 0 0 0 0 0 0 0
FullNghs:  18983.6 ave 20207 max 17400 min
Histogram: 2 1 2 0 2 1 0 2 4 2

Total # of neighbors = 303738
Ave neighs/atom = 303.738
Neighbor list builds = 1000
Dangerous builds not checked
Setting up Verlet run ...
  Unit style    : real
  Current step  : 8000
  Time step     : 1
Per MPI rank memory allocation (min/avg/max) = 4.578 | 4.578 | 4.579 Mbytes
Step Temp E_pair E_mol TotEng Press Volume Lx Ly Lz S/CPU 
    8000    305.57915   -10537.418            0   -9627.4556    10217.027    777.06369    9.1935986    9.1935986    9.1935986            0 
    8100    297.11704   -10512.041            0   -9627.2773    17028.983    774.76872    9.1845389    9.1845389    9.1845389    30.905621 
    8200    303.16129   -10528.623            0   -9625.8609    20659.157    773.53333    9.1796547    9.1796547    9.1796547    45.383551 
    8300    304.65108   -10533.107            0   -9625.9082    11616.788     773.4098     9.179166     9.179166     9.179166     29.46114 
    8400    310.88782   -10550.007            0   -9624.2366   -92.017603    773.90003     9.181105     9.181105     9.181105    35.520252 
    8500    303.84274    -10528.73            0   -9623.9379    3765.6622    774.64867    9.1840645    9.1840645    9.1840645    38.076514 
    8600    284.69076   -10470.652            0    -9622.892    9655.5486    775.55718    9.1876535    9.1876535    9.1876535    22.515973 
    8700    290.44775   -10485.857            0   -9620.9527    17689.344    776.96049    9.1931916    9.1931916    9.1931916    39.202988 
    8800     302.4482   -10519.159            0   -9618.5196    4082.2673    778.95503    9.2010515    9.2010515    9.2010515    30.571127 
    8900    295.58844   -10492.662            0     -9612.45   -6499.3831    781.41984    9.2107461    9.2107461    9.2107461    33.850731 
    9000    295.76273   -10486.566            0   -9605.8349    -15236.59    783.82652    9.2201924    9.2201924    9.2201924    26.534198 
Loop time of 31.2612 on 16 procs for 1000 steps with 1000 atoms

Performance: 2.764 ns/day, 8.684 hours/ns, 31.989 timesteps/s
52.4% CPU use with 16 MPI tasks x no OpenMP threads

MPI task timing breakdown:
Section |  min time  |  avg time  |  max time  |%varavg| %total
---------------------------------------------------------------
Pair    | 2.036      | 2.3053     | 2.8103     |  11.1 |  7.37
Neigh   | 0.684      | 0.75972    | 0.91382    |   5.9 |  2.43
Comm    | 3.9811     | 4.5818     | 4.8794     |   9.8 | 14.66
Output  | 16         | 16.441     | 22.656     |  39.6 | 52.59
Modify  | 0.88931    | 7.1642     | 7.8135     |  60.8 | 22.92
Other   |            | 0.008924   |            |       |  0.03

Nlocal:    62.5 ave 68 max 57 min
Histogram: 1 2 3 1 2 0 2 1 2 2
Nghost:    1854.44 ave 1871 max 1840 min
Histogram: 2 0 0 4 3 4 1 1 0 1
Neighs:    0 ave 0 max 0 min
Histogram: 16 0 0 0 0 0 0 0 0 0
FullNghs:  18802.5 ave 20563 max 17078 min
Histogram: 1 1 4 1 2 0 2 1 3 1

Total # of neighbors = 300840
Ave neighs/atom = 300.84
Neighbor list builds = 1000
Dangerous builds not checked
Setting up Verlet run ...
  Unit style    : real
  Current step  : 9000
  Time step     : 1
Per MPI rank memory allocation (min/avg/max) = 4.578 | 4.578 | 4.579 Mbytes
Step Temp E_pair E_mol TotEng Press Volume Lx Ly Lz S/CPU 
    9000    295.76273   -10486.566            0   -9605.8349    -15236.59    783.82652    9.2201924    9.2201924    9.2201924            0 
    9100    302.75225   -10499.201            0   -9597.6562    -4093.951    785.72278    9.2276217    9.2276217    9.2276217    44.329515 
    9200    303.17099   -10492.076            0    -9589.285   -5716.6965    787.21316    9.2334524    9.2334524    9.2334524      25.7182 
    9300    300.77096   -10475.384            0   -9579.7395   -15370.168    788.44164     9.238253     9.238253     9.238253      26.9071 
    9400     297.2239    -10456.22            0   -9571.1382   -2106.7233    789.34207    9.2417685    9.2417685    9.2417685    34.760057 
    9500    306.87507    -10475.73            0   -9561.9086   -8546.0747    789.95608    9.2441642    9.2441642    9.2441642    21.451042 
    9600    315.55493   -10495.224            0   -9555.5555   -19502.992    789.79106    9.2435204    9.2435204    9.2435204    38.647884 
    9700    307.11858   -10464.494            0   -9549.9474   -17824.677    788.84848    9.2398417    9.2398417    9.2398417    30.322675 
    9800     314.0579    -10482.69            0   -9547.4788     5582.457    787.48432    9.2345125    9.2345125    9.2345125    40.964577 
    9900    321.21624    -10500.64            0   -9544.1129    1939.7293     785.9254    9.2284148    9.2284148    9.2284148    40.235869 
   10000    308.32975   -10460.999            0   -9542.8458    8789.0581    784.17292    9.2215504    9.2215504    9.2215504    33.941838 
Loop time of 31.1574 on 16 procs for 1000 steps with 1000 atoms

Performance: 2.773 ns/day, 8.655 hours/ns, 32.095 timesteps/s
52.2% CPU use with 16 MPI tasks x no OpenMP threads

MPI task timing breakdown:
Section |  min time  |  avg time  |  max time  |%varavg| %total
---------------------------------------------------------------
Pair    | 2.0362     | 2.2496     | 2.6827     |  10.5 |  7.22
Neigh   | 0.70039    | 0.7581     | 0.89784    |   5.5 |  2.43
Comm    | 4.0132     | 4.5187     | 5.044      |  10.3 | 14.50
Output  | 17.242     | 17.608     | 22.673     |  31.2 | 56.51
Modify  | 0.88044    | 6.0146     | 6.5606     |  54.3 | 19.30
Other   |            | 0.008869   |            |       |  0.03

Nlocal:    62.5 ave 68 max 58 min
Histogram: 1 1 2 4 0 1 3 2 1 1
Nghost:    1859.62 ave 1880 max 1838 min
Histogram: 2 1 0 2 2 3 2 1 0 3
Neighs:    0 ave 0 max 0 min
Histogram: 16 0 0 0 0 0 0 0 0 0
FullNghs:  18814.6 ave 20702 max 17311 min
Histogram: 1 2 4 1 1 1 3 2 0 1

Total # of neighbors = 301034
Ave neighs/atom = 301.034
Neighbor list builds = 1000
Dangerous builds not checked
Setting up Verlet run ...
  Unit style    : real
  Current step  : 10000
  Time step     : 1
Per MPI rank memory allocation (min/avg/max) = 4.578 | 4.578 | 4.579 Mbytes
Step Temp E_pair E_mol TotEng Press Volume Lx Ly Lz S/CPU 
   10000    308.32975   -10460.999            0   -9542.8458    8789.0581    784.17292    9.2215504    9.2215504    9.2215504            0 
   10100    306.13877   -10456.262            0   -9544.6329     5962.492     783.0081    9.2169823    9.2169823    9.2169823    35.701346 
   10200    301.98015   -10447.283            0    -9548.038    18628.439    782.35719    9.2144276    9.2144276    9.2144276    39.932167 
   10300    318.23354   -10503.886            0   -9556.2405    5980.7084    782.21918    9.2138857    9.2138857    9.2138857     37.24441 
   10400    303.05423   -10468.707            0   -9566.2629    16920.415    782.61688     9.215447     9.215447     9.215447    35.295606 
   10500    295.86916    -10461.13            0    -9580.082     12100.79    783.42898    9.2186334    9.2186334    9.2186334    31.185304 
   10600     296.9556   -10480.222            0   -9595.9388    9284.9977    784.74867    9.2238068    9.2238068    9.2238068    34.919763 
   10700    301.19703   -10507.303            0   -9610.3901    7429.6217    786.42158    9.2303565    9.2303565    9.2303565    36.084998 
   10800    296.06299   -10503.861            0   -9622.2361   -8659.4404    788.11448     9.236975     9.236975     9.236975    31.719958 
   10900    306.00903   -10540.652            0   -9629.4098    -21217.09    789.10127    9.2408286    9.2408286    9.2408286    37.312848 
   11000    291.62258   -10502.493            0    -9634.091   -3443.3283    789.40926    9.2420307    9.2420307    9.2420307    39.034571 
Loop time of 28.0597 on 16 procs for 1000 steps with 1000 atoms

Performance: 3.079 ns/day, 7.794 hours/ns, 35.638 timesteps/s
52.8% CPU use with 16 MPI tasks x no OpenMP threads

MPI task timing breakdown:
Section |  min time  |  avg time  |  max time  |%varavg| %total
---------------------------------------------------------------
Pair    | 2.0576     | 2.2359     | 2.6413     |   9.8 |  7.97
Neigh   | 0.68609    | 0.75143    | 0.86716    |   5.0 |  2.68
Comm    | 4.1672     | 4.615      | 4.9132     |   9.1 | 16.45
Output  | 13.4       | 13.808     | 19.509     |  39.6 | 49.21
Modify  | 0.86507    | 6.6407     | 7.2291     |  58.1 | 23.67
Other   |            | 0.008835   |            |       |  0.03

Nlocal:    62.5 ave 67 max 56 min
Histogram: 1 0 2 1 0 3 2 3 3 1
Nghost:    1853.19 ave 1871 max 1824 min
Histogram: 1 0 1 1 3 2 1 1 4 2
Neighs:    0 ave 0 max 0 min
Histogram: 16 0 0 0 0 0 0 0 0 0
FullNghs:  18697.8 ave 20295 max 16747 min
Histogram: 1 0 2 1 1 4 2 3 1 1

Total # of neighbors = 299164
Ave neighs/atom = 299.164
Neighbor list builds = 1000
Dangerous builds not checked
Setting up Verlet run ...
  Unit style    : real
  Current step  : 11000
  Time step     : 1
Per MPI rank memory allocation (min/avg/max) = 4.578 | 4.578 | 4.579 Mbytes
Step Temp E_pair E_mol TotEng Press Volume Lx Ly Lz S/CPU 
   11000    291.62258   -10502.493            0    -9634.091   -3443.3283    789.40926    9.2420307    9.2420307    9.2420307            0 
   11100    298.98437    -10527.16            0    -9636.836    5032.6352    789.65552    9.2429916    9.2429916    9.2429916    37.684978 
   11200    292.80469   -10509.493            0   -9637.5711   -10017.286    789.82656    9.2436589    9.2436589    9.2436589    35.245513 
   11300    300.14545   -10531.652            0   -9637.8701   -10784.976    789.77437    9.2434553    9.2434553    9.2434553    36.868639 
   11400    304.96955   -10545.835            0   -9637.6875   -4856.0197    789.58327    9.2427097    9.2427097    9.2427097    36.286986 
   11500    290.65278   -10501.556            0   -9636.0414   -445.27211     789.1742    9.2411133    9.2411133    9.2411133    40.579784 
   11600    303.08292   -10537.098            0   -9634.5688   -1682.4214    788.36707    9.2379617    9.2379617    9.2379617     35.16786 
   11700    302.45962   -10532.053            0   -9631.3799    1155.1737    787.28608    9.2337375    9.2337375    9.2337375    43.284394 
   11800    284.66347   -10474.754            0   -9627.0746   -20743.643    786.05895    9.2289375    9.2289375    9.2289375    31.502696 
   11900    306.33755   -10536.737            0   -9624.5164    -1798.586    783.90049    9.2204824    9.2204824    9.2204824    41.290607 
   12000    302.30976   -10519.102            0   -9618.8755    18822.093    781.65198    9.2116581    9.2116581    9.2116581    33.968189 
Loop time of 27.1173 on 16 procs for 1000 steps with 1000 atoms

Performance: 3.186 ns/day, 7.533 hours/ns, 36.877 timesteps/s
53.0% CPU use with 16 MPI tasks x no OpenMP threads

MPI task timing breakdown:
Section |  min time  |  avg time  |  max time  |%varavg| %total
---------------------------------------------------------------
Pair    | 2.0658     | 2.2598     | 2.6071     |   8.9 |  8.33
Neigh   | 0.71354    | 0.76526    | 0.87674    |   4.7 |  2.82
Comm    | 4.141      | 4.5428     | 4.8763     |   9.5 | 16.75
Output  | 12.15      | 12.577     | 18.58      |  43.7 | 46.38
Modify  | 0.90222    | 6.9637     | 7.5977     |  59.5 | 25.68
Other   |            | 0.00893    |            |       |  0.03

Nlocal:    62.5 ave 67 max 55 min
Histogram: 1 0 0 1 1 5 2 2 1 3
Nghost:    1871.06 ave 1901 max 1846 min
Histogram: 1 1 2 4 0 4 1 2 0 1
Neighs:    0 ave 0 max 0 min
Histogram: 16 0 0 0 0 0 0 0 0 0
FullNghs:  18880.9 ave 20253 max 16566 min
Histogram: 1 0 0 2 1 4 2 2 1 3

Total # of neighbors = 302094
Ave neighs/atom = 302.094
Neighbor list builds = 1000
Dangerous builds not checked
Setting up Verlet run ...
  Unit style    : real
  Current step  : 12000
  Time step     : 1
Per MPI rank memory allocation (min/avg/max) = 4.578 | 4.578 | 4.579 Mbytes
Step Temp E_pair E_mol TotEng Press Volume Lx Ly Lz S/CPU 
   12000    302.30976   -10519.102            0   -9618.8755    18822.093    781.65198    9.2116581    9.2116581    9.2116581            0 
   12100    299.50231    -10505.01            0   -9613.1433    6163.4378    780.00223    9.2051729    9.2051729    9.2051729    45.148163 
   12200    310.74056   -10532.522            0   -9607.1894    9573.7876    778.69126    9.2000128    9.2000128    9.2000128    43.799986 
   12300    303.33142   -10502.577            0   -9599.3075   -689.68109    777.86936    9.1967749    9.1967749    9.1967749    30.508115 
   12400    314.19507   -10527.708            0   -9592.0887   -3190.6333    777.41091    9.1949677    9.1949677    9.1949677    41.055381 
   12500    305.68005   -10493.523            0   -9583.2602    3062.9027    777.18158    9.1940635    9.1940635    9.1940635    29.273203 
   12600    315.50531   -10515.967            0   -9576.4461    16203.341    777.29233    9.1945002    9.1945002    9.1945002    40.181477 
   12700    309.52815    -10490.15            0   -9568.4278    10059.599    778.10577    9.1977065    9.1977065    9.1977065    26.133055 
   12800    307.89729    -10477.41            0   -9560.5443    4847.6523     779.7623    9.2042289    9.2042289    9.2042289     37.43911 
   12900    304.57286   -10460.766            0   -9553.8005    2944.8462    782.05469    9.2132398    9.2132398    9.2132398    20.940224 
   13000    309.74502   -10468.072            0   -9545.7044   -5032.1039    784.53199    9.2229578    9.2229578    9.2229578    45.682216 
Loop time of 29.5787 on 16 procs for 1000 steps with 1000 atoms

Performance: 2.921 ns/day, 8.216 hours/ns, 33.808 timesteps/s
52.7% CPU use with 16 MPI tasks x no OpenMP threads

MPI task timing breakdown:
Section |  min time  |  avg time  |  max time  |%varavg| %total
---------------------------------------------------------------
Pair    | 2.1248     | 2.3045     | 2.7655     |   9.6 |  7.79
Neigh   | 0.70957    | 0.76522    | 0.90777    |   4.9 |  2.59
Comm    | 3.902      | 4.439      | 4.9319     |  10.9 | 15.01
Output  | 15.105     | 15.506     | 21.114     |  36.8 | 52.42
Modify  | 0.87939    | 6.5552     | 7.1443     |  57.5 | 22.16
Other   |            | 0.008964   |            |       |  0.03

Nlocal:    62.5 ave 68 max 57 min
Histogram: 1 2 1 2 1 4 2 1 0 2
Nghost:    1858.88 ave 1869 max 1843 min
Histogram: 3 1 0 0 1 0 2 3 3 3
Neighs:    0 ave 0 max 0 min
Histogram: 16 0 0 0 0 0 0 0 0 0
FullNghs:  18807.2 ave 20480 max 17224 min
Histogram: 1 2 1 1 2 4 3 0 0 2

Total # of neighbors = 300916
Ave neighs/atom = 300.916
Neighbor list builds = 1000
Dangerous builds not checked
Setting up Verlet run ...
  Unit style    : real
  Current step  : 13000
  Time step     : 1
Per MPI rank memory allocation (min/avg/max) = 4.578 | 4.578 | 4.579 Mbytes
Step Temp E_pair E_mol TotEng Press Volume Lx Ly Lz S/CPU 
   13000    309.74502   -10468.072            0   -9545.7044   -5032.1039    784.53199    9.2229578    9.2229578    9.2229578            0 
   13100     309.6537   -10460.671            0   -9538.5748   -3972.1099    786.82703    9.2319425    9.2319425    9.2319425    24.321105 
   13200    322.56422   -10491.712            0   -9531.1704    676.99826    788.85211    9.2398559    9.2398559    9.2398559    41.186189 
   13300    313.22714     -10455.2            0   -9522.4632    11433.162    790.84798    9.2476419    9.2476419    9.2476419    44.071288 
   13400    319.29977   -10466.558            0   -9515.7381   -7137.9709    793.00431    9.2560391    9.2560391    9.2560391    35.732636 
   13500    299.23044   -10401.161            0    -9510.104   -13317.661     794.6507    9.2624403    9.2624403    9.2624403    40.333718 
   13600    310.70859   -10430.705            0   -9505.4683   -13764.423    795.74961     9.266708     9.266708     9.266708    36.358153 
   13700    310.86387   -10427.432            0   -9501.7324   -7460.5887    796.13493    9.2682035    9.2682035    9.2682035    42.697465 
   13800    300.54304    -10392.48            0   -9497.5146    -14304.61    796.01293      9.26773      9.26773      9.26773    40.934757 
   13900    312.23078   -10427.049            0   -9497.2792   -4860.7293    795.25024    9.2647692    9.2647692    9.2647692    32.200727 
   14000    308.17997   -10414.912            0   -9497.2048   -7851.2091    794.21218    9.2607362    9.2607362    9.2607362     30.41398 
Loop time of 28.0156 on 16 procs for 1000 steps with 1000 atoms

Performance: 3.084 ns/day, 7.782 hours/ns, 35.694 timesteps/s
52.8% CPU use with 16 MPI tasks x no OpenMP threads

MPI task timing breakdown:
Section |  min time  |  avg time  |  max time  |%varavg| %total
---------------------------------------------------------------
Pair    | 1.9574     | 2.2235     | 2.6955     |  10.6 |  7.94
Neigh   | 0.68368    | 0.75703    | 0.89146    |   5.1 |  2.70
Comm    | 3.9148     | 4.456      | 4.9609     |  11.9 | 15.91
Output  | 12.914     | 13.36      | 19.636     |  44.3 | 47.69
Modify  | 0.86818    | 7.21       | 7.8542     |  61.2 | 25.74
Other   |            | 0.008824   |            |       |  0.03

Nlocal:    62.5 ave 67 max 55 min
Histogram: 1 1 0 1 1 3 3 0 3 3
Nghost:    1845.38 ave 1862 max 1830 min
Histogram: 1 2 2 1 1 4 2 1 0 2
Neighs:    0 ave 0 max 0 min
Histogram: 16 0 0 0 0 0 0 0 0 0
FullNghs:  18577.8 ave 19958 max 16399 min
Histogram: 1 1 0 2 0 2 3 4 0 3

Total # of neighbors = 297244
Ave neighs/atom = 297.244
Neighbor list builds = 1000
Dangerous builds not checked
Setting up Verlet run ...
  Unit style    : real
  Current step  : 14000
  Time step     : 1
Per MPI rank memory allocation (min/avg/max) = 4.578 | 4.578 | 4.579 Mbytes
Step Temp E_pair E_mol TotEng Press Volume Lx Ly Lz S/CPU 
   14000    308.17997   -10414.912            0   -9497.2048   -7851.2091    794.21218    9.2607362    9.2607362    9.2607362            0 
   14100      318.584   -10450.201            0   -9501.5124   -6317.1517    792.64646    9.2546466    9.2546466    9.2546466    37.438484 
   14200    304.80169   -10413.326            0   -9505.6787    503.08987    790.77121    9.2473426    9.2473426    9.2473426    36.557615 
   14300    306.33522   -10428.746            0   -9516.5319   -15268.023    789.06428    9.2406842    9.2406842    9.2406842    41.232326 
   14400    301.48261   -10426.458            0   -9528.6942    2137.0437    786.94773    9.2324145    9.2324145    9.2324145    35.652635 
   14500    301.34026   -10440.271            0   -9542.9313   -3203.5445    785.19775    9.2255659    9.2255659    9.2255659    33.536551 
   14600    315.44366   -10495.275            0   -9555.9373   -4092.6057    783.61805    9.2193749    9.2193749    9.2193749    37.746031 
   14700    309.63981   -10489.864            0   -9567.8095    3426.9691    782.37833    9.2145105    9.2145105    9.2145105    38.726346 
   14800    302.71621    -10480.96            0   -9579.5232    6587.3164    781.76735    9.2121113    9.2121113    9.2121113    29.117503 
   14900    301.92917   -10487.641            0   -9588.5475    3653.7526    781.84312    9.2124089    9.2124089    9.2124089    42.845198 
   15000    302.27275   -10496.472            0   -9596.3553   -1782.5454    782.54834    9.2151779    9.2151779    9.2151779    33.245198 
Loop time of 27.6263 on 16 procs for 1000 steps with 1000 atoms

Performance: 3.127 ns/day, 7.674 hours/ns, 36.197 timesteps/s
53.0% CPU use with 16 MPI tasks x no OpenMP threads

MPI task timing breakdown:
Section |  min time  |  avg time  |  max time  |%varavg| %total
---------------------------------------------------------------
Pair    | 2.0959     | 2.2645     | 2.6129     |   7.9 |  8.20
Neigh   | 0.70454    | 0.76065    | 0.86879    |   4.1 |  2.75
Comm    | 4.0552     | 4.4517     | 4.7586     |   9.3 | 16.11
Output  | 12.122     | 12.59      | 19.197     |  48.1 | 45.57
Modify  | 0.88285    | 7.5508     | 8.2175     |  62.8 | 27.33
Other   |            | 0.008893   |            |       |  0.03

Nlocal:    62.5 ave 68 max 56 min
Histogram: 1 0 2 2 0 5 2 2 1 1
Nghost:    1856.06 ave 1868 max 1835 min
Histogram: 1 0 2 1 1 2 1 1 2 5
Neighs:    0 ave 0 max 0 min
Histogram: 16 0 0 0 0 0 0 0 0 0
FullNghs:  18866.1 ave 20515 max 16702 min
Histogram: 1 0 2 2 0 2 5 1 1 2

Total # of neighbors = 301858
Ave neighs/atom = 301.858
Neighbor list builds = 1000
Dangerous builds not checked
Setting up Verlet run ...
  Unit style    : real
  Current step  : 15000
  Time step     : 1
Per MPI rank memory allocation (min/avg/max) = 4.578 | 4.578 | 4.579 Mbytes
Step Temp E_pair E_mol TotEng Press Volume Lx Ly Lz S/CPU 
   15000    302.27275   -10496.472            0   -9596.3553   -1782.5454    782.54834    9.2151779    9.2151779    9.2151779            0 
   15100     296.1499   -10483.558            0   -9601.6741   -6669.5338    783.80958     9.220126     9.220126     9.220126    41.234077 
   15200    295.83121   -10487.482            0   -9606.5475    2600.9327    785.02402    9.2248855    9.2248855    9.2248855    38.663903 
   15300    288.49461   -10468.961            0   -9609.8735    10339.507    786.22276    9.2295786    9.2295786    9.2295786    36.806558 
   15400    292.82227   -10485.367            0    -9613.392    1241.9338    787.80706    9.2357738    9.2357738    9.2357738    38.659993 
   15500    304.81794   -10523.207            0   -9615.5109   -634.27826    789.47855    9.2423011    9.2423011    9.2423011    39.752978 
   15600    296.97132   -10499.968            0   -9615.6384   -17369.174    790.91325    9.2478963    9.2478963    9.2478963    41.278641 
   15700    299.45137    -10508.62            0   -9616.9047    -10278.43    791.77569    9.2512565    9.2512565    9.2512565    30.584249 
   15800    294.98587   -10494.108            0   -9615.6901   -4740.6536    791.86658    9.2516104    9.2516104    9.2516104    36.409962 
   15900    297.86338   -10502.147            0   -9615.1611   -4067.9265    791.11012    9.2486635    9.2486635    9.2486635    42.319379 
   16000    289.56894   -10476.346            0   -9614.0596   -5747.3318    789.53438    9.2425189    9.2425189    9.2425189    36.885533 
Loop time of 26.3436 on 16 procs for 1000 steps with 1000 atoms

Performance: 3.280 ns/day, 7.318 hours/ns, 37.960 timesteps/s
53.3% CPU use with 16 MPI tasks x no OpenMP threads

MPI task timing breakdown:
Section |  min time  |  avg time  |  max time  |%varavg| %total
---------------------------------------------------------------
Pair    | 2.0234     | 2.2613     | 2.7018     |   9.9 |  8.58
Neigh   | 0.69337    | 0.76387    | 0.88867    |   4.7 |  2.90
Comm    | 4.0906     | 4.6006     | 4.9623     |   9.9 | 17.46
Output  | 11.639     | 12.048     | 17.785     |  42.7 | 45.74
Modify  | 0.86819    | 6.6607     | 7.265      |  58.2 | 25.28
Other   |            | 0.008904   |            |       |  0.03

Nlocal:    62.5 ave 69 max 56 min
Histogram: 1 1 2 3 3 0 1 1 1 3
Nghost:    1852.94 ave 1869 max 1833 min
Histogram: 1 1 2 2 1 1 2 2 2 2
Neighs:    0 ave 0 max 0 min
Histogram: 16 0 0 0 0 0 0 0 0 0
FullNghs:  18699.5 ave 20792 max 16852 min
Histogram: 1 2 4 0 3 0 1 2 1 2

Total # of neighbors = 299192
Ave neighs/atom = 299.192
Neighbor list builds = 1000
Dangerous builds not checked
Setting up Verlet run ...
  Unit style    : real
  Current step  : 16000
  Time step     : 1
Per MPI rank memory allocation (min/avg/max) = 4.578 | 4.578 | 4.579 Mbytes
Step Temp E_pair E_mol TotEng Press Volume Lx Ly Lz S/CPU 
   16000    289.56894   -10476.346            0   -9614.0596   -5747.3318    789.53438    9.2425189    9.2425189    9.2425189            0 
   16100    292.83773   -10484.739            0   -9612.7186    1887.9815    787.30427    9.2338086    9.2338086    9.2338086      40.3502 
   16200    298.64692   -10500.398            0   -9611.0789    7706.9704    784.96169    9.2246413    9.2246413    9.2246413    33.592218 
   16300    303.30728   -10511.509            0   -9608.3115   -5298.4379    782.69739     9.215763     9.215763     9.215763    39.806903 
   16400    302.36913   -10504.278            0   -9603.8749    4017.0429    779.98061    9.2050878    9.2050878    9.2050878    32.775732 
   16500    300.42778   -10491.626            0   -9597.0035    11015.018     777.4095    9.1949622    9.1949622    9.1949622    42.075852 
   16600    300.73685   -10486.224            0   -9590.6807    18245.372    775.59107    9.1877873    9.1877873    9.1877873    33.721333 
   16700    311.58888   -10511.002            0   -9583.1439    22180.118    774.99261    9.1854236    9.1854236    9.1854236    41.363639 
   16800    310.85874   -10501.724            0   -9576.0396    10940.172     775.7307    9.1883387    9.1883387    9.1883387     41.81669 
   16900    312.71903   -10503.672            0   -9572.4484    14375.639    777.53425     9.195454     9.195454     9.195454     36.52702 
   17000    308.17256   -10485.842            0   -9568.1566    8284.3851    780.53223    9.2072573    9.2072573    9.2072573    39.647182 
Loop time of 26.4296 on 16 procs for 1000 steps with 1000 atoms

Performance: 3.269 ns/day, 7.342 hours/ns, 37.836 timesteps/s
53.4% CPU use with 16 MPI tasks x no OpenMP threads

MPI task timing breakdown:
Section |  min time  |  avg time  |  max time  |%varavg| %total
---------------------------------------------------------------
Pair    | 1.9534     | 2.2984     | 2.6937     |  12.5 |  8.70
Neigh   | 0.6764     | 0.76301    | 0.88644    |   6.0 |  2.89
Comm    | 4.0994     | 4.5533     | 5.2471     |  13.8 | 17.23
Output  | 12.304     | 12.675     | 17.836     |  37.4 | 47.96
Modify  | 0.9042     | 6.1315     | 6.7022     |  54.8 | 23.20
Other   |            | 0.008914   |            |       |  0.03

Nlocal:    62.5 ave 66 max 56 min
Histogram: 1 0 2 0 1 1 1 2 2 6
Nghost:    1873.44 ave 1888 max 1851 min
Histogram: 1 0 1 1 2 3 1 3 2 2
Neighs:    0 ave 0 max 0 min
Histogram: 16 0 0 0 0 0 0 0 0 0
FullNghs:  18908.8 ave 19986 max 16733 min
Histogram: 1 0 2 0 2 0 1 3 3 4

Total # of neighbors = 302540
Ave neighs/atom = 302.54
Neighbor list builds = 1000
Dangerous builds not checked
Setting up Verlet run ...
  Unit style    : real
  Current step  : 17000
  Time step     : 1
Per MPI rank memory allocation (min/avg/max) = 4.578 | 4.578 | 4.579 Mbytes
Step Temp E_pair E_mol TotEng Press Volume Lx Ly Lz S/CPU 
   17000    308.17256   -10485.842            0   -9568.1566    8284.3851    780.53223    9.2072573    9.2072573    9.2072573            0 
   17100     296.9772   -10448.741            0   -9564.3937   -9391.8496    783.94343    9.2206508    9.2206508    9.2206508    34.224671 
   17200    312.70264   -10494.474            0   -9563.2985   -3254.6519     787.2772    9.2337028    9.2337028    9.2337028    42.131925 
   17300    307.91373   -10479.644            0   -9562.7292    -20323.03    790.45525    9.2461109    9.2461109    9.2461109    34.090935 
   17400    307.49075   -10478.405            0     -9562.75   -4340.1452    792.83373    9.2553754    9.2553754    9.2553754     39.97799 
   17500    309.73058   -10486.545            0   -9564.2207   -26424.274    794.49188    9.2618232    9.2618232    9.2618232    35.411914 
   17600    307.12392   -10479.498            0   -9564.9353   -13260.622    794.89785    9.2634005    9.2634005    9.2634005    29.677505 
   17700     299.9846   -10462.012            0   -9568.7093   -2296.1222    794.08815    9.2602541    9.2602541    9.2602541     33.04083 
   17800    292.53015   -10443.419            0   -9572.3139   -6788.8258    792.18033    9.2528322    9.2528322    9.2528322     36.92667 
   17900    298.95437   -10466.893            0   -9576.6577   -18657.067    789.41344     9.242047     9.242047     9.242047    23.578739 
   18000    303.23239   -10485.842            0   -9582.8675   -5944.4207    785.93903    9.2284682    9.2284682    9.2284682    37.324359 
Loop time of 29.5786 on 16 procs for 1000 steps with 1000 atoms

Performance: 2.921 ns/day, 8.216 hours/ns, 33.808 timesteps/s
52.5% CPU use with 16 MPI tasks x no OpenMP threads

MPI task timing breakdown:
Section |  min time  |  avg time  |  max time  |%varavg| %total
---------------------------------------------------------------
Pair    | 2.0351     | 2.2248     | 2.5746     |   8.3 |  7.52
Neigh   | 0.70563    | 0.75494    | 0.86333    |   4.4 |  2.55
Comm    | 4.1576     | 4.5559     | 4.9648     |   9.8 | 15.40
Output  | 14.154     | 14.613     | 21.088     |  43.7 | 49.40
Modify  | 0.88544    | 7.4208     | 8.0741     |  62.1 | 25.09
Other   |            | 0.008833   |            |       |  0.03

Nlocal:    62.5 ave 67 max 57 min
Histogram: 1 0 1 2 1 3 2 2 2 2
Nghost:    1866.56 ave 1893 max 1829 min
Histogram: 1 0 2 1 1 4 1 2 2 2
Neighs:    0 ave 0 max 0 min
Histogram: 16 0 0 0 0 0 0 0 0 0
FullNghs:  18754.9 ave 20171 max 17023 min
Histogram: 1 0 1 2 2 3 3 2 1 1

Total # of neighbors = 300078
Ave neighs/atom = 300.078
Neighbor list builds = 1000
Dangerous builds not checked
Setting up Verlet run ...
  Unit style    : real
  Current step  : 18000
  Time step     : 1
Per MPI rank memory allocation (min/avg/max) = 4.578 | 4.578 | 4.579 Mbytes
Step Temp E_pair E_mol TotEng Press Volume Lx Ly Lz S/CPU 
   18000    303.23239   -10485.842            0   -9582.8675   -5944.4207    785.93903    9.2284682    9.2284682    9.2284682            0 
   18100    311.70615   -10518.437            0   -9590.2298    13534.063    782.57699    9.2152904    9.2152904    9.2152904    28.647736 
   18200     307.9419   -10515.565            0   -9598.5664    24917.152    780.06685    9.2054271    9.2054271    9.2054271     38.10535 
   18300    297.65188   -10496.198            0   -9609.8412    9115.4616    778.42843    9.1989776    9.1989776    9.1989776    27.535224 
   18400    287.12451   -10475.124            0   -9620.1166     24413.23     777.7127    9.1961574    9.1961574    9.1961574    40.120243 
   18500    303.90354   -10537.371            0   -9632.3979    3902.4942    778.11242    9.1977327    9.1977327    9.1977327    19.230292 
   18600    288.30512   -10498.642            0   -9640.1188    3997.8351      778.922    9.2009215    9.2009215    9.2009215     34.12947 
   18700    300.57192   -10542.935            0   -9647.8828     3575.464    779.87259    9.2046628    9.2046628    9.2046628    40.644411 
   18800    297.83899     -10540.3            0   -9653.3863    2722.1862    781.22218    9.2099694    9.2099694    9.2099694    41.898624 
   18900    291.40667   -10525.534            0   -9657.7743   -6800.1627     782.8164      9.21623      9.21623      9.21623     36.61317 
   19000    289.35169   -10523.314            0   -9661.6744   -3981.5209     784.4174    9.2225087    9.2225087    9.2225087    43.197958 
Loop time of 30.2628 on 16 procs for 1000 steps with 1000 atoms

Performance: 2.855 ns/day, 8.406 hours/ns, 33.044 timesteps/s
52.5% CPU use with 16 MPI tasks x no OpenMP threads

MPI task timing breakdown:
Section |  min time  |  avg time  |  max time  |%varavg| %total
---------------------------------------------------------------
Pair    | 2.0356     | 2.2652     | 2.7644     |  11.9 |  7.49
Neigh   | 0.6878     | 0.75587    | 0.90927    |   6.1 |  2.50
Comm    | 3.9773     | 4.5729     | 5.063      |  12.0 | 15.11
Output  | 13.18      | 13.739     | 21.704     |  55.5 | 45.40
Modify  | 0.89732    | 8.9212     | 9.6872     |  69.5 | 29.48
Other   |            | 0.008887   |            |       |  0.03

Nlocal:    62.5 ave 69 max 56 min
Histogram: 2 0 0 4 1 4 2 1 0 2
Nghost:    1872.75 ave 1896 max 1856 min
Histogram: 3 1 2 1 4 1 1 0 2 1
Neighs:    0 ave 0 max 0 min
Histogram: 16 0 0 0 0 0 0 0 0 0
FullNghs:  18804.6 ave 21023 max 16723 min
Histogram: 2 0 1 3 2 4 1 1 1 1

Total # of neighbors = 300874
Ave neighs/atom = 300.874
Neighbor list builds = 1000
Dangerous builds not checked
Setting up Verlet run ...
  Unit style    : real
  Current step  : 19000
  Time step     : 1
Per MPI rank memory allocation (min/avg/max) = 4.578 | 4.578 | 4.579 Mbytes
Step Temp E_pair E_mol TotEng Press Volume Lx Ly Lz S/CPU 
   19000    289.35169   -10523.314            0   -9661.6744   -3981.5209     784.4174    9.2225087    9.2225087    9.2225087            0 
   19100    295.53348   -10544.083            0   -9664.0344   -14895.692     785.6072    9.2271692    9.2271692    9.2271692    31.998707 
   19200    297.44743   -10550.424            0   -9664.6765   -13051.694    786.13802     9.229247     9.229247     9.229247    39.243924 
   19300    285.26907   -10511.814            0   -9662.3316   -9991.4805    785.78413    9.2278619    9.2278619    9.2278619    33.808144 
   19400    296.48773    -10543.43            0   -9660.5399   -10705.724    784.83662    9.2241513    9.2241513    9.2241513    42.466142 
   19500    300.20361   -10551.056            0   -9657.1014   -11048.858    783.46944    9.2187921    9.2187921    9.2187921    32.102777 
   19600    294.82636   -10528.652            0   -9650.7093   -7652.9031    781.64443    9.2116285    9.2116285    9.2116285    40.834356 
   19700    289.33131   -10506.089            0   -9644.5097   -1894.5232    779.45632    9.2030249    9.2030249    9.2030249     34.45103 
   19800    308.68481   -10557.216            0   -9638.0056    7829.0431    777.34238    9.1946976    9.1946976    9.1946976    30.202294 
   19900    304.44802   -10535.768            0   -9629.1735    17358.613    775.62995    9.1879408    9.1879408    9.1879408    32.521107 
   20000    292.88208   -10490.692            0   -9618.5389    17030.459    774.41392    9.1831367    9.1831367    9.1831367    39.157411 
Loop time of 28.3925 on 16 procs for 1000 steps with 1000 atoms

Performance: 3.043 ns/day, 7.887 hours/ns, 35.221 timesteps/s
52.8% CPU use with 16 MPI tasks x no OpenMP threads

MPI task timing breakdown:
Section |  min time  |  avg time  |  max time  |%varavg| %total
---------------------------------------------------------------
Pair    | 2.0761     | 2.2883     | 2.7237     |   9.1 |  8.06
Neigh   | 0.7094     | 0.76464    | 0.88684    |   4.5 |  2.69
Comm    | 4.1264     | 4.6177     | 5.147      |  10.1 | 16.26
Output  | 13.784     | 14.183     | 19.768     |  38.3 | 49.95
Modify  | 0.8775     | 6.5299     | 7.1312     |  57.4 | 23.00
Other   |            | 0.008954   |            |       |  0.03

Nlocal:    62.5 ave 67 max 58 min
Histogram: 1 2 1 0 6 1 0 2 2 1
Nghost:    1888.88 ave 1900 max 1876 min
Histogram: 1 0 1 1 6 2 1 1 0 3
Neighs:    0 ave 0 max 0 min
Histogram: 16 0 0 0 0 0 0 0 0 0
FullNghs:  19053.6 ave 20331 max 17445 min
Histogram: 1 1 2 0 3 3 1 1 1 3

Total # of neighbors = 304858
Ave neighs/atom = 304.858
Neighbor list builds = 1000
Dangerous builds not checked
Setting up Verlet run ...
  Unit style    : real
  Current step  : 20000
  Time step     : 1
Per MPI rank memory allocation (min/avg/max) = 4.578 | 4.578 | 4.579 Mbytes
Step Temp E_pair E_mol TotEng Press Volume Lx Ly Lz S/CPU 
   20000    292.88208   -10490.692            0   -9618.5389    17030.459    774.41392    9.1831367    9.1831367    9.1831367            0 
   20100     309.2807   -10528.939            0   -9607.9542    3702.7358    774.03915    9.1816551    9.1816551    9.1816551    30.036182 
   20200    305.40849   -10505.165            0   -9595.7102    17295.721    774.19187    9.1822589    9.1822589    9.1822589    41.917914 
   20300    309.39626   -10504.586            0   -9583.2571    23712.679    775.13535    9.1859875    9.1859875    9.1859875    29.656741 
   20400    309.78094   -10495.513            0   -9573.0385    32598.358    777.47861    9.1952346    9.1952346    9.1952346    34.356379 
   20500    307.34446   -10480.804            0   -9565.5851    6056.2253    781.79224     9.212209     9.212209     9.212209    36.331343 
   20600    310.14106   -10484.329            0   -9560.7817    2540.1926    787.20321    9.2334135    9.2334135    9.2334135    35.574508 
   20700     304.3881   -10462.953            0   -9556.5372   -4530.0927    792.76744    9.2551175    9.2551175    9.2551175    35.245007 
   20800    297.19757   -10437.684            0   -9552.6805   -24635.001    797.77547    9.2745652    9.2745652    9.2745652    40.444614 
   20900    301.48598   -10448.332            0   -9550.5582   -13431.409    801.44879    9.2887782    9.2887782    9.2887782    26.968397 
   21000    304.43908   -10455.012            0    -9548.444   -29079.673    803.87557    9.2981442    9.2981442    9.2981442    40.599002 
Loop time of 29.0421 on 16 procs for 1000 steps with 1000 atoms

Performance: 2.975 ns/day, 8.067 hours/ns, 34.433 timesteps/s
52.8% CPU use with 16 MPI tasks x no OpenMP threads

MPI task timing breakdown:
Section |  min time  |  avg time  |  max time  |%varavg| %total
---------------------------------------------------------------
Pair    | 2.0123     | 2.2649     | 2.7274     |  10.3 |  7.80
Neigh   | 0.68597    | 0.76106    | 0.905      |   5.5 |  2.62
Comm    | 3.9934     | 4.5403     | 5.0027     |  10.3 | 15.63
Output  | 14.291     | 14.708     | 20.544     |  39.3 | 50.64
Modify  | 0.86194    | 6.7594     | 7.3761     |  58.8 | 23.27
Other   |            | 0.008883   |            |       |  0.03

Nlocal:    62.5 ave 67 max 59 min
Histogram: 3 1 1 2 0 4 2 1 1 1
Nghost:    1823.31 ave 1842 max 1801 min
Histogram: 2 0 1 1 2 3 2 3 1 1
Neighs:    0 ave 0 max 0 min
Histogram: 16 0 0 0 0 0 0 0 0 0
FullNghs:  18343.6 ave 19680 max 17195 min
Histogram: 3 0 2 1 3 2 1 2 1 1

Total # of neighbors = 293498
Ave neighs/atom = 293.498
Neighbor list builds = 1000
Dangerous builds not checked
Setting up Verlet run ...
  Unit style    : real
  Current step  : 21000
  Time step     : 1
Per MPI rank memory allocation (min/avg/max) = 4.578 | 4.578 | 4.579 Mbytes
Step Temp E_pair E_mol TotEng Press Volume Lx Ly Lz S/CPU 
   21000    304.43908   -10455.012            0    -9548.444   -29079.673    803.87557    9.2981442    9.2981442    9.2981442            0 
   21100    300.52889     -10441.6            0   -9546.6768   -24854.285    804.74606    9.3014992    9.3014992    9.3014992    32.439544 
   21200    296.67624   -10428.052            0   -9544.6008   -12285.995    804.07642    9.2989185    9.2989185    9.2989185    38.591285 
   21300    290.74129    -10409.25            0   -9543.4721   -12916.397    801.90347    9.2905344    9.2905344    9.2905344    33.998385 
   21400    296.23092   -10425.059            0   -9542.9336   -2007.9135    798.57809    9.2776745    9.2776745    9.2776745    40.083145 
   21500    315.23999   -10481.627            0    -9542.896   -702.22895    794.86821    9.2632854    9.2632854    9.2632854    35.217921 
   21600    304.17121   -10448.012            0   -9542.2423    2370.9983    790.84782    9.2476412    9.2476412    9.2476412    41.076759 
   21700    304.92962   -10450.777            0   -9542.7484   -6045.6109    786.55634    9.2308837    9.2308837    9.2308837    36.826513 
   21800    299.70157   -10435.138            0    -9542.678    6723.5408    782.48742    9.2149388    9.2149388    9.2149388    32.072827 
   21900    308.21425   -10462.398            0   -9544.5882    19252.455    779.00673    9.2012551    9.2012551    9.2012551    29.500949 
   22000    314.56233    -10484.34            0   -9547.6267     10785.48    776.36081    9.1908258    9.1908258    9.1908258    36.068693 
Loop time of 28.3797 on 16 procs for 1000 steps with 1000 atoms

Performance: 3.044 ns/day, 7.883 hours/ns, 35.236 timesteps/s
52.6% CPU use with 16 MPI tasks x no OpenMP threads

MPI task timing breakdown:
Section |  min time  |  avg time  |  max time  |%varavg| %total
---------------------------------------------------------------
Pair    | 2.0552     | 2.2225     | 2.6121     |   8.7 |  7.83
Neigh   | 0.70158    | 0.75762    | 0.88805    |   4.9 |  2.67
Comm    | 4.0486     | 4.5031     | 4.8987     |   9.3 | 15.87
Output  | 13.329     | 13.768     | 19.964     |  43.1 | 48.51
Modify  | 0.85699    | 7.1192     | 7.7483     |  60.8 | 25.09
Other   |            | 0.008866   |            |       |  0.03

Nlocal:    62.5 ave 70 max 57 min
Histogram: 2 0 3 4 0 3 3 0 0 1
Nghost:    1878.69 ave 1894 max 1873 min
Histogram: 6 2 2 1 2 1 1 0 0 1
Neighs:    0 ave 0 max 0 min
Histogram: 16 0 0 0 0 0 0 0 0 0
FullNghs:  18998.5 ave 21313 max 17258 min
Histogram: 1 2 3 1 2 3 3 0 0 1

Total # of neighbors = 303976
Ave neighs/atom = 303.976
Neighbor list builds = 1000
Dangerous builds not checked
Setting up Verlet run ...
  Unit style    : real
  Current step  : 22000
  Time step     : 1
Per MPI rank memory allocation (min/avg/max) = 4.578 | 4.578 | 4.579 Mbytes
Step Temp E_pair E_mol TotEng Press Volume Lx Ly Lz S/CPU 
   22000    314.56233    -10484.34            0   -9547.6267     10785.48    776.36081    9.1908258    9.1908258    9.1908258            0 
   22100    309.37166   -10475.124            0   -9553.8681     21811.35    774.95475     9.185274     9.185274     9.185274    40.068823 
   22200    309.19048   -10485.048            0   -9564.3318    11301.469    775.17227    9.1861333    9.1861333    9.1861333    31.470827 
   22300    311.46778   -10503.574            0   -9576.0762    6366.8356    776.67696    9.1920732    9.1920732    9.1920732    38.132001 
   22400    290.32679   -10452.608            0    -9588.064    4605.8783    779.02252    9.2013172    9.2013172    9.2013172    32.269521 
   22500    298.43564   -10488.165            0   -9599.4751    493.83794    781.65632    9.2116752    9.2116752    9.2116752    34.593665 
   22600     297.3982   -10493.117            0   -9607.5161   -913.71924    784.05832    9.2211012    9.2211012    9.2211012    26.515678 
   22700    292.42995    -10484.66            0   -9613.8534   -1508.2095    785.83126    9.2280464    9.2280464    9.2280464    41.302959 
   22800     305.9266   -10531.117            0   -9620.1202   -8881.1693    787.16875    9.2332788    9.2332788    9.2332788    38.917724 
   22900    291.49081    -10490.15            0   -9622.1402   -10414.322      787.944    9.2363089    9.2363089    9.2363089    33.050262 
   23000    297.33368   -10510.639            0     -9625.23   -14827.504    787.74422    9.2355283    9.2355283    9.2355283    34.865581 
Loop time of 28.9414 on 16 procs for 1000 steps with 1000 atoms

Performance: 2.985 ns/day, 8.039 hours/ns, 34.553 timesteps/s
52.7% CPU use with 16 MPI tasks x no OpenMP threads

MPI task timing breakdown:
Section |  min time  |  avg time  |  max time  |%varavg| %total
---------------------------------------------------------------
Pair    | 2.0918     | 2.2939     | 2.7188     |  11.1 |  7.93
Neigh   | 0.69074    | 0.76389    | 0.893      |   5.5 |  2.64
Comm    | 4.1357     | 4.6423     | 5.058      |  10.9 | 16.04
Output  | 14.205     | 14.61      | 20.275     |  38.3 | 50.48
Modify  | 0.9087     | 6.6223     | 7.2304     |  57.6 | 22.88
Other   |            | 0.008966   |            |       |  0.03

Nlocal:    62.5 ave 68 max 57 min
Histogram: 2 1 2 1 2 2 2 0 1 3
Nghost:    1842.5 ave 1864 max 1817 min
Histogram: 1 0 1 0 4 4 3 1 1 1
Neighs:    0 ave 0 max 0 min
Histogram: 16 0 0 0 0 0 0 0 0 0
FullNghs:  18731.8 ave 20551 max 16962 min
Histogram: 2 1 1 2 3 1 2 1 2 1

Total # of neighbors = 299708
Ave neighs/atom = 299.708
Neighbor list builds = 1000
Dangerous builds not checked
Setting up Verlet run ...
  Unit style    : real
  Current step  : 23000
  Time step     : 1
Per MPI rank memory allocation (min/avg/max) = 4.578 | 4.578 | 4.579 Mbytes
Step Temp E_pair E_mol TotEng Press Volume Lx Ly Lz S/CPU 
   23000    297.33368   -10510.639            0     -9625.23   -14827.504    787.74422    9.2355283    9.2355283    9.2355283            0 
   23100    302.84391   -10528.792            0   -9626.9742   -7638.3681    786.72811    9.2315556    9.2315556    9.2315556    37.297768 
   23200    294.27297   -10504.892            0   -9628.5973   -428.83725    784.85146    9.2242095    9.2242095    9.2242095    31.855126 
   23300    295.59723   -10508.449            0   -9628.2107   -5974.8483    782.72622    9.2158761    9.2158761    9.2158761     31.23117 
   23400    290.67414   -10493.146            0   -9627.5677   -5249.3577    780.60156    9.2075299    9.2075299    9.2075299     37.15869 
   23500    302.25546   -10528.426            0   -9628.3612   -2010.2934    778.61182       9.1997       9.1997       9.1997    29.611896 
   23600    298.65089   -10515.462            0   -9626.1303   -908.17166    776.72115    9.1922475    9.1922475    9.1922475    39.432882 
   23700    297.80212   -10510.978            0   -9624.1742    8792.3268    774.74743    9.1844548    9.1844548    9.1844548    33.552948 
   23800    300.36628   -10514.414            0   -9619.9749    15426.862    773.35897    9.1789649    9.1789649    9.1789649    35.321716 
   23900    292.49302   -10486.042            0   -9615.0481    2723.3491    772.66436     9.176216     9.176216     9.176216    36.259298 
   24000    309.39976   -10530.848            0   -9609.5088    17831.194    772.66222    9.1762075    9.1762075    9.1762075    37.581588 
Loop time of 28.8568 on 16 procs for 1000 steps with 1000 atoms

Performance: 2.994 ns/day, 8.016 hours/ns, 34.654 timesteps/s
52.8% CPU use with 16 MPI tasks x no OpenMP threads

MPI task timing breakdown:
Section |  min time  |  avg time  |  max time  |%varavg| %total
---------------------------------------------------------------
Pair    | 2.0203     | 2.3096     | 2.7243     |   9.7 |  8.00
Neigh   | 0.68394    | 0.76393    | 0.88585    |   4.9 |  2.65
Comm    | 4.0729     | 4.5578     | 4.936      |   9.9 | 15.79
Output  | 12.856     | 13.342     | 20.244     |  48.8 | 46.24
Modify  | 0.91998    | 7.8747     | 8.5681     |  64.2 | 27.29
Other   |            | 0.008885   |            |       |  0.03

Nlocal:    62.5 ave 69 max 57 min
Histogram: 3 0 1 2 4 0 3 1 0 2
Nghost:    1875.88 ave 1891 max 1859 min
Histogram: 1 0 1 2 3 3 4 0 1 1
Neighs:    0 ave 0 max 0 min
Histogram: 16 0 0 0 0 0 0 0 0 0
FullNghs:  19082.1 ave 20995 max 17374 min
Histogram: 3 0 1 2 4 0 2 2 0 2

Total # of neighbors = 305314
Ave neighs/atom = 305.314
Neighbor list builds = 1000
Dangerous builds not checked
Setting up Verlet run ...
  Unit style    : real
  Current step  : 24000
  Time step     : 1
Per MPI rank memory allocation (min/avg/max) = 4.578 | 4.578 | 4.579 Mbytes
Step Temp E_pair E_mol TotEng Press Volume Lx Ly Lz S/CPU 
   24000    309.39976   -10530.848            0   -9609.5088    17831.194    772.66222    9.1762075    9.1762075    9.1762075            0 
   24100     308.6104   -10519.124            0   -9600.1345   -3104.1283    773.49976    9.1795219    9.1795219    9.1795219    35.509272 
   24200    302.13096   -10490.104            0   -9590.4098    8299.3118    774.62387    9.1839665    9.1839665    9.1839665    34.570781 
   24300    308.90638    -10499.06            0   -9579.1896    7501.3483    776.07589    9.1897013    9.1897013    9.1897013    35.109999 
   24400     296.3674   -10449.542            0     -9567.01    12910.464    778.19807    9.1980701    9.1980701    9.1980701    36.203689 
   24500    303.30782   -10457.542            0   -9554.3436    6628.8519    780.88428    9.2086414    9.2086414    9.2086414    38.554598 
   24600     304.8495   -10453.243            0    -9545.453   -17233.265     783.4782    9.2188264    9.2188264    9.2188264    31.967814 
   24700    311.54819   -10466.644            0   -9538.9062   -4282.3191    785.36546    9.2262227    9.2262227    9.2262227    37.865229 
   24800    299.46941   -10424.741            0   -9532.9726   -11742.671    786.68585    9.2313903    9.2313903    9.2313903    32.603779 
   24900    316.39403   -10472.547            0   -9530.3796   -21451.945    787.21909    9.2334756    9.2334756    9.2334756    38.574303 
   25000    303.94472   -10433.881            0   -9528.7854   -5453.0774    786.68549    9.2313889    9.2313889    9.2313889     30.96139 
Loop time of 28.5715 on 16 procs for 1000 steps with 1000 atoms

Performance: 3.024 ns/day, 7.937 hours/ns, 35.000 timesteps/s
52.9% CPU use with 16 MPI tasks x no OpenMP threads

MPI task timing breakdown:
Section |  min time  |  avg time  |  max time  |%varavg| %total
---------------------------------------------------------------
Pair    | 2.0482     | 2.3038     | 2.7112     |  10.3 |  8.06
Neigh   | 0.69763    | 0.76379    | 0.88868    |   5.2 |  2.67
Comm    | 4.0533     | 4.5191     | 4.8649     |   9.8 | 15.82
Output  | 13.671     | 14.094     | 20.043     |  40.9 | 49.33
Modify  | 0.86507    | 6.8814     | 7.497      |  59.4 | 24.08
Other   |            | 0.008973   |            |       |  0.03

Nlocal:    62.5 ave 68 max 57 min
Histogram: 4 0 2 1 0 2 1 1 2 3
Nghost:    1867.56 ave 1893 max 1846 min
Histogram: 2 2 1 4 1 0 2 1 1 2
Neighs:    0 ave 0 max 0 min
Histogram: 16 0 0 0 0 0 0 0 0 0
FullNghs:  18768.8 ave 20527 max 16861 min
Histogram: 2 2 1 1 1 1 2 3 0 3

Total # of neighbors = 300300
Ave neighs/atom = 300.3
Neighbor list builds = 1000
Dangerous builds not checked
Setting up Verlet run ...
  Unit style    : real
  Current step  : 25000
  Time step     : 1
Per MPI rank memory allocation (min/avg/max) = 4.578 | 4.578 | 4.579 Mbytes
Step Temp E_pair E_mol TotEng Press Volume Lx Ly Lz S/CPU 
   25000    303.94472   -10433.881            0   -9528.7854   -5453.0774    786.68549    9.2313889    9.2313889    9.2313889            0 
   25100    302.63321   -10429.215            0   -9528.0248   -7518.0864    785.80535    9.2279449    9.2279449    9.2279449    28.254255 
   25200    292.01351   -10399.475            0   -9529.9084   -7596.9321    784.91397    9.2244544    9.2244544    9.2244544    40.281022 
   25300    301.85718   -10432.262            0   -9533.3827    13510.225    784.41433    9.2224967    9.2224967    9.2224967    33.438145 
   25400    310.28873   -10463.702            0   -9539.7153    7367.4161    784.76365    9.2238655    9.2238655    9.2238655    40.172275 
   25500    313.68041   -10482.941            0   -9548.8544    4374.8768    785.86346    9.2281724    9.2281724    9.2281724    27.434795 
   25600    305.99687   -10469.779            0   -9558.5725    18600.198    786.99481    9.2325986    9.2325986    9.2325986    33.635943 
   25700    302.12205   -10468.836            0    -9569.168   -1798.8937    788.09632    9.2369041    9.2369041    9.2369041    40.349742 
   25800    298.61936    -10467.56            0   -9578.3228    3263.3712    789.24031    9.2413713    9.2413713    9.2413713    37.465393 
   25900    289.90972    -10451.09            0   -9587.7888    1146.2418    790.35245      9.24571      9.24571      9.24571    31.389272 
   26000    296.20509   -10478.928            0     -9596.88   -6968.5586    791.04989    9.2484288    9.2484288    9.2484288    29.879354 
Loop time of 29.8 on 16 procs for 1000 steps with 1000 atoms

Performance: 2.899 ns/day, 8.278 hours/ns, 33.557 timesteps/s
52.4% CPU use with 16 MPI tasks x no OpenMP threads

MPI task timing breakdown:
Section |  min time  |  avg time  |  max time  |%varavg| %total
---------------------------------------------------------------
Pair    | 1.9954     | 2.2415     | 2.6085     |   9.8 |  7.52
Neigh   | 0.68534    | 0.75475    | 0.86967    |   4.9 |  2.53
Comm    | 4.1496     | 4.5752     | 5.0643     |  10.2 | 15.35
Output  | 14.985     | 15.403     | 21.26      |  38.5 | 51.69
Modify  | 0.9024     | 6.8167     | 7.4387     |  58.7 | 22.87
Other   |            | 0.008843   |            |       |  0.03

Nlocal:    62.5 ave 65 max 58 min
Histogram: 2 1 0 0 0 3 0 3 5 2
Nghost:    1843.88 ave 1864 max 1826 min
Histogram: 2 2 3 1 0 0 3 3 1 1
Neighs:    0 ave 0 max 0 min
Histogram: 16 0 0 0 0 0 0 0 0 0
FullNghs:  18638.2 ave 19387 max 17246 min
Histogram: 2 1 0 0 0 2 2 2 3 4

Total # of neighbors = 298212
Ave neighs/atom = 298.212
Neighbor list builds = 1000
Dangerous builds not checked
Setting up Verlet run ...
  Unit style    : real
  Current step  : 26000
  Time step     : 1
Per MPI rank memory allocation (min/avg/max) = 4.578 | 4.578 | 4.579 Mbytes
Step Temp E_pair E_mol TotEng Press Volume Lx Ly Lz S/CPU 
   26000    296.20509   -10478.928            0     -9596.88   -6968.5586    791.04989    9.2484288    9.2484288    9.2484288            0 
   26100    297.85043   -10489.371            0   -9602.4235   -12925.003    791.47176    9.2500726    9.2500726    9.2500726    36.265956 
   26200    312.31865   -10536.427            0   -9606.3956    1259.5399     791.4229    9.2498822    9.2498822    9.2498822    37.829671 
   26300     299.7109   -10499.512            0   -9607.0241   -11412.488    791.36913    9.2496728    9.2496728    9.2496728    41.762854 
   26400    297.12535   -10494.273            0   -9609.4845   -13263.347    790.84291    9.2476221    9.2476221    9.2476221    33.931231 
   26500    297.17657    -10496.16            0   -9611.2193    -1701.985    789.87569    9.2438506    9.2438506    9.2438506    41.796661 
   26600    306.80682   -10527.604            0   -9613.9855   -18317.245    788.91839    9.2401147    9.2401147    9.2401147    32.395928 
   26700    291.98317   -10483.254            0   -9613.7782   -2403.9883    787.37475    9.2340841    9.2340841    9.2340841    37.489082 
   26800    292.56041   -10484.915            0   -9613.7205   -2906.1889    785.43024    9.2264763    9.2264763    9.2264763     28.60349 
   26900     302.0999   -10513.785            0   -9614.1831    9389.7104    783.26583    9.2179934    9.2179934    9.2179934    35.294511 
   27000    305.77492   -10524.663            0   -9614.1171    3561.5497    781.38586    9.2106126    9.2106126    9.2106126    31.801457 
Loop time of 28.3633 on 16 procs for 1000 steps with 1000 atoms

Performance: 3.046 ns/day, 7.879 hours/ns, 35.257 timesteps/s
52.7% CPU use with 16 MPI tasks x no OpenMP threads

MPI task timing breakdown:
Section |  min time  |  avg time  |  max time  |%varavg| %total
---------------------------------------------------------------
Pair    | 2.0045     | 2.2244     | 2.6537     |   9.5 |  7.84
Neigh   | 0.69563    | 0.75392    | 0.89145    |   5.2 |  2.66
Comm    | 3.9823     | 4.4941     | 4.7267     |   9.0 | 15.84
Output  | 13.78      | 14.191     | 19.941     |  39.4 | 50.03
Modify  | 0.88542    | 6.6911     | 7.3031     |  58.2 | 23.59
Other   |            | 0.008817   |            |       |  0.03

Nlocal:    62.5 ave 68 max 58 min
Histogram: 1 1 1 2 2 6 0 1 1 1
Nghost:    1849.5 ave 1876 max 1826 min
Histogram: 3 1 1 1 1 2 2 3 1 1
Neighs:    0 ave 0 max 0 min
Histogram: 16 0 0 0 0 0 0 0 0 0
FullNghs:  18882.6 ave 20650 max 17374 min
Histogram: 2 1 0 3 3 4 1 0 1 1

Total # of neighbors = 302122
Ave neighs/atom = 302.122
Neighbor list builds = 1000
Dangerous builds not checked
Setting up Verlet run ...
  Unit style    : real
  Current step  : 27000
  Time step     : 1
Per MPI rank memory allocation (min/avg/max) = 4.578 | 4.578 | 4.579 Mbytes
Step Temp E_pair E_mol TotEng Press Volume Lx Ly Lz S/CPU 
   27000    305.77492   -10524.663            0   -9614.1171    3561.5497    781.38586    9.2106126    9.2106126    9.2106126            0 
   27100    302.99325   -10516.932            0   -9614.6703    14033.444    780.19525    9.2059321    9.2059321    9.2059321    36.548521 
   27200    302.01305   -10513.497            0   -9614.1535    9988.9529    779.53215    9.2033233    9.2033233    9.2033233    37.807703 
   27300    304.91648   -10522.457            0   -9614.4676    6751.1901    779.48405     9.203134     9.203134     9.203134    36.015653 
   27400    302.01804   -10514.266            0   -9614.9082    6959.1133    780.10312    9.2055697    9.2055697    9.2055697    32.619417 
   27500    306.10805   -10526.519            0   -9614.9812    13373.077    781.45304    9.2108765    9.2108765    9.2108765    41.924126 
   27600    304.70548    -10523.88            0   -9616.5194    865.47961     783.8003    9.2200896    9.2200896    9.2200896    35.320957 
   27700    302.50664    -10519.12            0   -9618.3064   -3371.5764    786.12501     9.229196     9.229196     9.229196     34.33507 
   27800    301.72343    -10519.25            0   -9620.7689   -10627.516    788.11268     9.236968     9.236968     9.236968    37.863592 
   27900    285.63954   -10473.874            0   -9623.2887   -15787.427    789.44499    9.2421701    9.2421701    9.2421701    41.743853 
   28000    299.45935    -10519.38            0   -9627.6409   -6776.3809    789.82223     9.243642     9.243642     9.243642    33.435022 
Loop time of 27.3799 on 16 procs for 1000 steps with 1000 atoms

[...]
  746700    301.43718   -11267.072            0   -10369.444    2071.8923    745.47092    9.0672774    9.0672774    9.0672774    50.783948 
  746800    307.77669   -11279.239            0   -10362.733    4281.3705    742.85972    9.0566782    9.0566782    9.0566782    39.949754 
  746900    300.25312   -11249.293            0    -10355.19   -5356.0018    740.23599    9.0460031    9.0460031    9.0460031    39.886198 
  747000    313.58822   -11283.682            0    -10349.87    16530.456    738.05138    9.0370954    9.0370954    9.0370954     45.54786 
  747100    306.81419   -11259.814            0   -10346.173    15691.706    736.85864    9.0322246    9.0322246    9.0322246    42.672829 
  747200    293.03544   -11216.788            0   -10344.179    19839.656     736.6631    9.0314255    9.0314255    9.0314255    36.258024 
  747300    296.50115   -11227.563            0   -10344.633     14102.54    737.80056    9.0360715    9.0360715    9.0360715    37.705925 
  747400    303.20558   -11247.392            0   -10344.498    12075.306    739.94891    9.0448335    9.0448335    9.0448335    45.430264 
  747500    305.39568   -11254.962            0   -10345.545    11527.623    742.97471    9.0571455    9.0571455    9.0571455    32.093764 
  747600    306.91529   -11261.649            0   -10347.708    9570.9038    746.53322    9.0715823    9.0715823    9.0715823    41.798563 
  747700    298.37936   -11235.816            0   -10347.293   -19487.105    750.09981     9.086006     9.086006     9.086006    38.629494 
  747800    306.41925   -11259.982            0   -10347.518   -30122.241    752.13391    9.0942116    9.0942116    9.0942116    43.683251 
  747900    305.36984   -11260.402            0   -10351.063   -36317.934    752.02803    9.0937849    9.0937849    9.0937849    44.102236 
  748000    299.60019   -11246.527            0   -10354.369   -33650.392    749.65564    9.0842122    9.0842122    9.0842122    41.424151 
  748100    298.97766   -11250.907            0   -10360.603   -7675.6066    745.51511    9.0674565    9.0674565    9.0674565    45.027059 
  748200    306.72064   -11284.388            0   -10371.026    5000.3033    740.98363    9.0490476    9.0490476    9.0490476    36.903561 
  748300    309.19224   -11303.335            0   -10382.613    23021.616    737.10791     9.033243     9.033243     9.033243    49.463746 
  748400    303.35944   -11298.815            0   -10395.462    16397.366    734.74141    9.0235654    9.0235654    9.0235654    38.722747 
  748500    287.91738   -11263.979            0   -10406.611     27853.25     734.2726    9.0216459    9.0216459    9.0216459     38.28555 
  748600    292.12923   -11288.333            0   -10418.422    32852.858    735.44359    9.0264391    9.0264391    9.0264391    34.804932 
  748700    296.79786   -11312.751            0   -10428.938    14407.202    737.96794    9.0367548    9.0367548    9.0367548    41.766704 
  748800     288.6693   -11294.652            0   -10435.045    10403.487    741.06659    9.0493853    9.0493853    9.0493853    31.694604 
  748900    285.47063   -11288.953            0    -10438.87   -10689.647    744.04983    9.0615121    9.0615121    9.0615121    39.069202 
  749000    284.71136   -11287.898            0   -10440.076   -18364.616    746.18947    9.0701897    9.0701897    9.0701897    47.242573 
  749100    289.92252   -11301.643            0   -10438.303   -18546.088    747.08707    9.0738251    9.0738251    9.0738251    38.984927 
  749200    290.06985   -11298.226            0   -10434.448   -19407.921    746.55861    9.0716851    9.0716851    9.0716851    41.070661 
  749300    284.71728   -11276.716            0   -10428.877   -19711.984    744.97503    9.0652664    9.0652664    9.0652664    31.602606 
  749400    294.51503   -11297.305            0    -10420.29   -10412.211    742.99134    9.0572131    9.0572131    9.0572131     38.20505 
  749500    291.50486   -11276.876            0   -10408.825    9662.7425    741.10432    9.0495388    9.0495388    9.0495388    46.038537 
  749600    297.31644   -11282.543            0   -10397.185     5335.751    739.44887    9.0427956    9.0427956    9.0427956    44.902565 
  749700    294.70694   -11263.224            0   -10385.637    11811.952    738.29021    9.0380701    9.0380701    9.0380701    43.838669 
  749800    308.88005   -11298.617            0   -10378.825    12886.981    737.87949    9.0363937    9.0363937    9.0363937    35.102814 
  749900    295.81452   -11252.601            0   -10371.716    7540.5072    738.31624    9.0381763    9.0381763    9.0381763     45.19779 
  750000    307.54479   -11285.526            0   -10369.711    10790.341    739.15385    9.0415929    9.0415929    9.0415929     32.23238 
  750100    302.87022   -11269.265            0    -10367.37    7835.4772    740.61301    9.0475386    9.0475386    9.0475386     45.39626 
  750200    293.97356   -11240.408            0   -10365.005    8979.0308    742.62781    9.0557356    9.0557356    9.0557356    36.817271 
  750300    302.36923   -11264.141            0   -10363.737    -13490.22     744.7463    9.0643385    9.0643385    9.0643385    37.589054 
  750400    297.85062   -11249.839            0   -10362.891   -14528.061    746.08103    9.0697503    9.0697503    9.0697503    36.958832 
  750500    301.11619   -11258.678            0   -10362.006   -7892.2328    746.50271    9.0714587    9.0714587    9.0714587    38.512395 
  750600    301.33145   -11257.946            0   -10360.633   -3442.4532    746.04344     9.069598     9.069598     9.069598    39.924251 
  750700    306.91333    -11274.18            0   -10360.245   -17455.525    745.22395     9.066276     9.066276     9.066276    40.892133 
  750800    296.04147    -11240.65            0   -10359.089   -3135.0309     743.6496     9.059887     9.059887     9.059887    43.076142 
  750900    300.83239    -11255.58            0   -10359.752   -4432.9253    741.51185    9.0511973    9.0511973    9.0511973    37.786293 
  751000    298.18666   -11248.266            0   -10360.317    10324.862    739.55409    9.0432246    9.0432246    9.0432246     42.03845 
  751100    312.54404   -11293.791            0   -10363.088    15973.067    738.27206     9.037996     9.037996     9.037996    33.748829 
  751200     301.5464   -11262.538            0   -10364.585    13468.341    737.76674    9.0359334    9.0359334    9.0359334    42.682813 
  751300    305.13464   -11280.929            0    -10372.29    16417.045    738.40644    9.0385443    9.0385443    9.0385443    39.874048 
  751400    308.98109   -11303.507            0   -10383.414   -3816.8149    739.93736    9.0447865    9.0447865    9.0447865    43.244991 
  751500     299.0647   -11287.875            0   -10397.311    12101.411    741.92201    9.0528659    9.0528659    9.0528659    30.524464 
  751600    294.29627   -11289.114            0    -10412.75     -7995.13    744.21022    9.0621632    9.0621632    9.0621632    47.170034 
  751700    293.26188   -11299.496            0   -10426.212   -17786.724    745.94229    9.0691881    9.0691881    9.0691881    35.440907 
  751800    305.81775   -11346.913            0    -10436.24    -15582.06    746.77091     9.072545     9.072545     9.072545    38.668037 
  751900    288.15741   -11298.386            0   -10440.302   -20296.459    746.61925    9.0719308    9.0719308    9.0719308    40.047791 
  752000    286.76715   -11297.415            0   -10443.472    363.56601     745.3664    9.0668536    9.0668536    9.0668536    45.022435 
  752100    286.71255   -11297.362            0   -10443.581   -8171.5397    743.25839    9.0582981    9.0582981    9.0582981    33.146706 
  752200    291.55586   -11309.683            0    -10441.48    7185.3205    740.67253     9.047781     9.047781     9.047781    46.368123 
  752300    300.78287   -11332.937            0   -10437.257    14508.843    738.32422    9.0382088    9.0382088    9.0382088    48.457762 
  752400    297.81872   -11317.117            0   -10430.264    22825.215    736.91645    9.0324608    9.0324608    9.0324608    37.220128 
  752500    299.77048   -11315.249            0   -10422.584    12151.441    737.06494    9.0330674    9.0330674    9.0330674    39.774281 
  752600    288.10913   -11272.053            0   -10414.113    15009.751    738.57967    9.0392511    9.0392511    9.0392511    48.425227 
  752700    300.67961   -11302.885            0   -10407.512   -2324.0883    740.85116    9.0485083    9.0485083    9.0485083    38.221478 
  752800     285.4341   -11248.533            0   -10398.559   -10907.032    743.26985    9.0583446    9.0583446    9.0583446    39.880402 
  752900    300.66428   -11288.053            0   -10392.727   -25435.474    745.40197    9.0669978    9.0669978    9.0669978    39.580002 
  753000     303.7669   -11290.462            0   -10385.896   -19793.456    746.94893    9.0732659    9.0732659    9.0732659    42.988281 
  753100    289.06358   -11239.309            0   -10378.527   -12256.113    747.53815     9.075651     9.075651     9.075651    43.549852 
  753200    291.32625   -11241.654            0   -10374.134   -8939.6858    746.88456    9.0730052    9.0730052    9.0730052    38.704677 
  753300    295.65247   -11250.481            0   -10370.079    1618.2918    745.46377    9.0672484    9.0672484    9.0672484    22.851048 
  753400    300.87124   -11263.262            0   -10367.319    425.60103    743.77999    9.0604165    9.0604165    9.0604165    36.613844 
  753500    300.30038   -11259.813            0   -10365.569    9519.2781    742.01481    9.0532433    9.0532433    9.0532433    43.274866 
  753600    299.68932   -11256.965            0   -10364.541    5335.8635    740.72569    9.0479974    9.0479974    9.0479974    31.332189 
  753700    308.72278   -11284.901            0   -10365.578    336.14671    739.96741    9.0449089    9.0449089    9.0449089    43.310176 
  753800    308.71407   -11284.762            0   -10365.464    7874.8632    739.80873    9.0442623    9.0442623    9.0442623    38.985022 
  753900     302.0959   -11266.013            0   -10366.423    12297.559      740.345    9.0464471    9.0464471    9.0464471    43.962939 
  754000     296.4222   -11249.094            0   -10366.399    1968.8717    741.29801    9.0503271    9.0503271    9.0503271    41.508064 
  754100    303.47311   -11271.168            0   -10367.476   -1148.8007     742.6053    9.0556442    9.0556442    9.0556442    40.930675 
  754200    301.69886   -11268.607            0     -10370.2   -6853.6314    744.08935    9.0616725    9.0616725    9.0616725    46.833733 
  754300     279.8742   -11204.012            0   -10370.595   -4726.3809    745.30924    9.0666218    9.0666218    9.0666218    36.237577 
  754400    296.63475   -11256.386            0   -10373.058   -4544.5372    746.07025    9.0697067    9.0697067    9.0697067    43.754123 
  754500    296.76355   -11259.989            0   -10376.278   -16531.335    746.25313    9.0704477    9.0704477    9.0704477    39.295606 
  754600    295.17409   -11259.249            0   -10380.271    309.43985    745.70148    9.0682121    9.0682121    9.0682121    44.819091 
  754700    296.61426   -11267.935            0   -10384.668   -19659.945    744.77675    9.0644621    9.0644621    9.0644621    38.363733 
  754800    292.28993   -11258.177            0   -10387.788    -7940.773    743.46039    9.0591186    9.0591186    9.0591186    43.150046 
  754900    298.10293   -11279.719            0    -10392.02    2345.1638    742.01577    9.0532472    9.0532472    9.0532472    45.666371 
  755000    295.60925   -11277.301            0   -10397.027   -2595.5807     740.8797    9.0486245    9.0486245    9.0486245    42.170619 
  755100    305.54218   -11316.147            0   -10406.294    11431.655     740.1647    9.0457127    9.0457127    9.0457127    46.033245 
  755200    303.00968   -11321.726            0   -10419.415    9102.7345    739.91918    9.0447124    9.0447124    9.0447124    42.674318 
  755300    304.25726   -11341.493            0   -10435.467   -2620.7438    740.20202    9.0458647    9.0458647    9.0458647    43.958121 
  755400     286.9267    -11305.99            0   -10451.571    6869.6569    740.41748    9.0467423    9.0467423    9.0467423    31.634078 
  755500    292.01082   -11331.838            0    -10462.28   -8772.5979     740.4784    9.0469904    9.0469904    9.0469904    43.219495 
  755600    286.60345   -11323.891            0   -10470.434    9012.8457    740.09776      9.04544      9.04544      9.04544     39.84717 
  755700    281.42995   -11312.304            0   -10474.254    6909.0245    739.43765    9.0427499    9.0427499    9.0427499    41.850487 
  755800    291.64718   -11344.642            0   -10476.166    10991.795    738.85501    9.0403742    9.0403742    9.0403742    42.301479 
  755900    291.16912   -11340.282            0    -10473.23   -10255.228    738.60316    9.0393469    9.0393469    9.0393469    41.633827 
  756000    290.12533   -11333.649            0   -10469.705    9208.4797    738.41369    9.0385739    9.0385739    9.0385739    33.878934 
  756100    286.09815   -11313.784            0   -10461.833    -2597.956    738.59735    9.0393232    9.0393232    9.0393232    41.784778 
  756200    286.28435   -11305.831            0   -10453.325    10055.217    739.05642    9.0411956    9.0411956    9.0411956    36.964126 
  756300    298.76276   -11333.681            0   -10444.017   -4120.3989     739.9269    9.0447439    9.0447439    9.0447439    41.673388 
  756400    290.58497    -11298.68            0   -10433.368    -12222.62    740.75892    9.0481327    9.0481327    9.0481327    34.137689 
  756500    293.17172   -11296.953            0   -10423.938    14658.981    741.43112    9.0508688    9.0508688    9.0508688    48.713961 
  756600    300.15964   -11310.242            0   -10416.418   -13395.037    742.31026    9.0544447    9.0544447    9.0544447    44.870789 
  756700    293.59754   -11283.529            0   -10409.245   -319.45976    742.99559    9.0572303    9.0572303    9.0572303    39.241764 
  756800    293.97692   -11278.287            0   -10402.874    788.08839     743.3065    9.0584935    9.0584935    9.0584935    47.559039 
  756900    294.47392   -11275.908            0   -10399.015   -3763.2303    743.44992    9.0590761    9.0590761    9.0590761    37.685054 
  757000    308.21953   -11312.101            0   -10394.276    3712.9052    743.68563    9.0600334    9.0600334    9.0600334    45.268867 
  757100     305.0419   -11298.649            0   -10390.286    4989.9892    743.88728    9.0608522    9.0608522    9.0608522    39.515857 
  757200    303.87432   -11291.886            0       -10387   -17560.665    743.67566    9.0599929    9.0599929    9.0599929     40.50885 
  757300    302.91711     -11285.9            0   -10383.865   -1033.3934    742.70722    9.0560584    9.0560584    9.0560584    38.653512 
  757400    306.05075   -11291.382            0   -10380.015     9967.649    741.74202    9.0521337    9.0521337    9.0521337    39.769249 
  757500    302.51834   -11279.716            0   -10378.869    1234.1772    741.05399     9.049334     9.049334     9.049334    38.562991 
  757600     298.2137     -11263.9            0    -10375.87    20326.048    740.85735    9.0485335    9.0485335    9.0485335    44.230253 
  757700    306.19713   -11286.695            0   -10374.893    31312.895    741.53788    9.0513032    9.0513032    9.0513032    33.920506 
  757800     289.2081   -11235.362            0    -10374.15   -5577.7352    743.10032    9.0576559    9.0576559    9.0576559    43.518005 
  757900    305.76046   -11283.097            0   -10372.595    7230.5029    744.78141     9.064481     9.064481     9.064481    50.943225 
  758000    315.50129   -11312.169            0    -10372.66   -15847.858    746.03574    9.0695668    9.0695668    9.0695668    40.442155 
  758100    302.86057   -11272.609            0   -10370.742   -21797.694    746.35865    9.0708752    9.0708752    9.0708752    39.918206 
  758200    293.94687    -11242.75            0   -10367.427   -12403.024    745.74643    9.0683943    9.0683943    9.0683943    40.614411 
  758300    302.43773   -11265.945            0   -10365.337   -16939.486    744.15825    9.0619522    9.0619522    9.0619522    40.492466 
  758400    314.51174   -11298.243            0   -10361.681    977.11164    741.94185    9.0529465    9.0529465    9.0529465    42.478518 
  758500    307.06724   -11271.553            0    -10357.16    828.39219    739.87525    9.0445334    9.0445334    9.0445334    42.001807 
  758600    300.86594   -11247.399            0   -10351.471    15049.998    738.14301    9.0374694    9.0374694    9.0374694    46.443927 
  758700    301.26852    -11242.99            0   -10345.863     14314.78    737.06976    9.0330871    9.0330871    9.0330871    44.200486 
  758800    309.29003   -11263.564            0   -10342.552    27016.342    737.09481    9.0331894    9.0331894    9.0331894    46.048796 
  758900    306.56552   -11253.251            0   -10340.351      6487.78    738.23891    9.0378607    9.0378607    9.0378607    44.612826 
  759000    302.60502   -11241.916            0    -10340.81   -11433.187    740.45465    9.0468937    9.0468937    9.0468937    30.212958 
  759100    306.29889   -11254.148            0   -10342.042   -16296.892    743.27828    9.0583789    9.0583789    9.0583789    40.200324 
  759200    304.29272   -11251.575            0   -10345.444   -12426.364    745.74611     9.068393     9.068393     9.068393    40.374231 
  759300    307.73737   -11266.293            0   -10349.904   -14096.094    747.54562    9.0756812    9.0756812    9.0756812    36.615088 
  759400    302.76427   -11256.719            0   -10355.138   -23284.166    748.20497    9.0783488    9.0783488    9.0783488    40.545233 
  759500    304.97788   -11270.235            0   -10362.063    -11148.54    747.72285    9.0763984    9.0763984    9.0763984    40.730087 
  759600    305.50925   -11280.042            0   -10370.288    -23656.85    746.07154    9.0697119    9.0697119    9.0697119    44.700672 
  759700    300.78883   -11274.447            0    -10378.75   -1821.8037     743.3278      9.05858      9.05858      9.05858       46.605 
  759800    300.27843   -11280.593            0   -10386.416    12440.421    740.31488    9.0463244    9.0463244    9.0463244    44.933082 
  759900    298.82535   -11282.892            0   -10393.041    20366.701    737.74339    9.0358381    9.0358381    9.0358381    36.055864 
  760000    297.25642   -11286.618            0   -10401.439    24148.535    736.17632    9.0294358    9.0294358    9.0294358    43.243378 
Loop time of 2499.54 on 16 procs for 100000 steps with 1000 atoms

Performance: 3.457 ns/day, 6.943 hours/ns, 40.007 timesteps/s
53.7% CPU use with 16 MPI tasks x no OpenMP threads

MPI task timing breakdown:
Section |  min time  |  avg time  |  max time  |%varavg| %total
---------------------------------------------------------------
Pair    | 213.33     | 229.47     | 264.09     |  73.7 |  9.18
Neigh   | 72.17      | 78.127     | 88.601     |  41.8 |  3.13
Comm    | 416.75     | 454.91     | 488.97     |  80.3 | 18.20
Output  | 1135.5     | 1169.8     | 1642.6     | 357.0 | 46.80
Modify  | 86.423     | 566.34     | 619.75     | 523.5 | 22.66
Other   |            | 0.9247     |            |       |  0.04

Nlocal:    62.5 ave 69 max 57 min
Histogram: 1 2 1 2 3 3 2 0 0 2
Nghost:    1945.75 ave 1979 max 1921 min
Histogram: 2 2 2 1 1 2 4 1 0 1
Neighs:    0 ave 0 max 0 min
Histogram: 16 0 0 0 0 0 0 0 0 0
FullNghs:  20054.8 ave 22431 max 17929 min
Histogram: 1 1 2 3 4 1 1 1 0 2

Total # of neighbors = 320876
Ave neighs/atom = 320.876
Neighbor list builds = 100000
Dangerous builds not checked
Total wall time: 5:38:01
