LAMMPS (16 Mar 2018)
Reading data file ...
  orthogonal box = (-4.72131 -4.72131 -4.72131) to (4.72131 4.72131 4.72131)
  2 by 2 by 4 MPI processor grid
  reading atoms ...
  1000 atoms
Reading potential file /home/fs01/ajm529/lammps-16Mar18/potentials/sw_potentials/AG/eps2.23.sw with DATE: 2008-01-29
Neighbor list info ...
  update every 1 steps, delay 0 steps, check no
  max neighbors/atom: 2000, page size: 100000
  master list distance cutoff = 3.836
  ghost atom cutoff = 3.836
  binsize = 1.918, bins = 5 5 5
  1 neighbor lists, perpetual/occasional/extra = 1 0 0
  (1) pair sw, perpetual
      attributes: full, newton on
      pair build: full/bin/atomonly
      stencil: full/bin/3d
      bin: standard
Setting up Verlet run ...
  Unit style    : real
  Current step  : 0
  Time step     : 1
Per MPI rank memory allocation (min/avg/max) = 3.517 | 3.519 | 3.521 Mbytes
Step Temp E_pair E_mol TotEng Press Volume Lx Ly Lz S/CPU 
       0          300   -10095.603            0   -9202.2544   -25384.872    841.93448    9.4426255    9.4426255    9.4426255            0 
     100    329.22631   -10188.292            0   -9207.9122   -48187.652    839.96761    9.4352667    9.4352667    9.4352667    40.454726 
     200    333.83214   -10218.419            0   -9224.3235   -34465.447     834.4866    9.4146993    9.4146993    9.4146993    49.185417 
     300    332.66852   -10237.727            0    -9247.097   -26597.624    826.25766    9.3836507    9.3836507    9.3836507    46.846535 
     400    329.93256   -10252.729            0   -9270.2457   -16005.795    816.50274    9.3465761    9.3465761    9.3465761    62.626314 
     500    317.07144   -10232.018            0    -9287.833    6917.2154    806.66544    9.3088883    9.3088883    9.3088883    46.812164 
     600    332.61839   -10293.683            0   -9303.2027   -4077.4461    798.21739    9.2762774    9.2762774    9.2762774    46.434893 
     700    328.29436   -10297.023            0   -9319.4185    18614.454    791.45889    9.2500225    9.2500225    9.2500225    48.780827 
     800    331.72491   -10325.063            0   -9337.2426    13858.504    786.81502    9.2318955    9.2318955    9.2318955     47.93032 
     900    328.67222   -10337.336            0   -9358.6067    16337.225    784.34405    9.2222212    9.2222212    9.2222212      37.6782 
    1000    324.75653   -10347.069            0   -9379.9993     11594.16    783.57294     9.219198     9.219198     9.219198    52.265461 
Loop time of 21.2299 on 16 procs for 1000 steps with 1000 atoms

Performance: 4.070 ns/day, 5.897 hours/ns, 47.103 timesteps/s
94.4% CPU use with 16 MPI tasks x no OpenMP threads

MPI task timing breakdown:
Section |  min time  |  avg time  |  max time  |%varavg| %total
---------------------------------------------------------------
Pair    | 1.5683     | 1.668      | 1.7951     |   5.4 |  7.86
Neigh   | 0.6593     | 0.68779    | 0.73932    |   2.5 |  3.24
Comm    | 0.64927    | 0.81881    | 0.94656    |   9.7 |  3.86
Output  | 11.632     | 12.033     | 17.992     |  44.4 | 56.68
Modify  | 0.054129   | 6.0135     | 6.415      |  62.7 | 28.33
Other   |            | 0.008716   |            |       |  0.04

Nlocal:    62.5 ave 68 max 58 min
Histogram: 1 2 0 1 4 3 2 2 0 1
Nghost:    1851.12 ave 1867 max 1830 min
Histogram: 1 1 0 3 2 2 1 2 2 2
Neighs:    0 ave 0 max 0 min
Histogram: 16 0 0 0 0 0 0 0 0 0
FullNghs:  18827.4 ave 20545 max 17587 min
Histogram: 3 0 1 3 4 1 3 0 0 1

Total # of neighbors = 301238
Ave neighs/atom = 301.238
Neighbor list builds = 1000
Dangerous builds not checked
Setting up Verlet run ...
  Unit style    : real
  Current step  : 1000
  Time step     : 1
Per MPI rank memory allocation (min/avg/max) = 3.767 | 4.426 | 4.58 Mbytes
Step Temp E_pair E_mol TotEng Press Volume Lx Ly Lz S/CPU 
    1000    324.75653   -10347.069            0   -9379.9993     11594.16    783.57294     9.219198     9.219198     9.219198            0 
    1100    327.35322   -10376.857            0   -9402.0551    8189.9674    784.13807    9.2214139    9.2214139    9.2214139     48.46733 
    1200    313.85307   -10356.472            0    -9421.871    4596.3364    785.39929    9.2263552    9.2263552    9.2263552    41.330278 
    1300    317.10824   -10385.483            0   -9441.1885   -3969.8853    786.59154    9.2310214    9.2310214    9.2310214    45.116785 
    1400    309.64271   -10382.188            0   -9460.1253   -9909.7931    787.75738    9.2355797    9.2355797    9.2355797    47.101405 
    1500    306.04918   -10389.687            0    -9478.325    1160.9987    788.69332    9.2392359    9.2392359    9.2392359    41.195694 
    1600    303.69243   -10401.136            0   -9496.7914   -179.01407    789.70346    9.2431786    9.2431786    9.2431786    43.018418 
    1700     313.0333   -10446.818            0   -9514.6583   -10904.755    790.44531    9.2460721    9.2460721    9.2460721    43.415438 
    1800    308.30725   -10448.347            0   -9530.2602   -5240.7556     790.9725    9.2481272    9.2481272    9.2481272    58.700504 
    1900    297.89006   -10432.737            0   -9545.6715   -3914.5225    791.23446     9.249148     9.249148     9.249148    55.658397 
    2000    304.86375   -10467.276            0   -9559.4439   -4648.1377    791.26632    9.2492722    9.2492722    9.2492722    46.864692 
Loop time of 21.5117 on 16 procs for 1000 steps with 1000 atoms

Performance: 4.016 ns/day, 5.975 hours/ns, 46.486 timesteps/s
94.4% CPU use with 16 MPI tasks x no OpenMP threads

MPI task timing breakdown:
Section |  min time  |  avg time  |  max time  |%varavg| %total
---------------------------------------------------------------
Pair    | 1.6019     | 1.7409     | 1.9068     |   5.8 |  8.09
Neigh   | 0.64103    | 0.69304    | 0.72884    |   2.8 |  3.22
Comm    | 0.65385    | 0.84663    | 1.0373     |  10.5 |  3.94
Output  | 12.456     | 12.815     | 18.143     |  38.4 | 59.57
Modify  | 0.078895   | 5.4079     | 5.7678     |  59.2 | 25.14
Other   |            | 0.008769   |            |       |  0.04

Nlocal:    62.5 ave 66 max 56 min
Histogram: 1 0 0 0 3 1 3 2 2 4
Nghost:    1849.5 ave 1873 max 1828 min
Histogram: 2 1 2 0 3 3 1 2 1 1
Neighs:    0 ave 0 max 0 min
Histogram: 16 0 0 0 0 0 0 0 0 0
FullNghs:  18656.6 ave 19793 max 16599 min
Histogram: 1 0 0 1 3 2 2 2 1 4

Total # of neighbors = 298506
Ave neighs/atom = 298.506
Neighbor list builds = 1000
Dangerous builds not checked
Setting up Verlet run ...
  Unit style    : real
  Current step  : 2000
  Time step     : 1
Per MPI rank memory allocation (min/avg/max) = 3.767 | 4.527 | 4.58 Mbytes
Step Temp E_pair E_mol TotEng Press Volume Lx Ly Lz S/CPU 
    2000    304.86375   -10467.276            0   -9559.4439   -4648.1377    791.26632    9.2492722    9.2492722    9.2492722            0 
    2100    302.32326   -10472.186            0   -9571.9192    3378.1285    791.15038    9.2488204    9.2488204    9.2488204    51.030683 
    2200    294.02118   -10459.521            0   -9583.9761   -12612.165    791.23199    9.2491384    9.2491384    9.2491384       59.137 
    2300    302.24256   -10494.253            0    -9594.226   -5302.0032    790.93039    9.2479631    9.2479631    9.2479631    62.508062 
    2400    295.76116   -10484.692            0   -9603.9662   -3764.1276    790.07019    9.2446092    9.2446092    9.2446092    47.559625 
    2500    305.95002   -10524.485            0   -9613.4182    6641.8117    788.59899    9.2388675    9.2388675    9.2388675    59.719498 
    2600    291.34846   -10489.174            0   -9621.5877   -10680.256    787.02304     9.232709     9.232709     9.232709    60.705512 
    2700    298.54249   -10521.149            0     -9632.14     242.1791    785.09265    9.2251542    9.2251542    9.2251542    47.352824 
    2800    285.79105   -10490.789            0   -9639.7517   -3721.2679    783.00536    9.2169715    9.2169715    9.2169715     47.81369 
    2900    278.26006   -10474.467            0   -9645.8561    2130.6519    781.25138    9.2100842    9.2100842    9.2100842    34.535905 
    3000    298.05364   -10541.071            0   -9653.5177    12057.276    780.10245    9.2055671    9.2055671    9.2055671    49.335362 
Loop time of 19.8006 on 16 procs for 1000 steps with 1000 atoms

Performance: 4.364 ns/day, 5.500 hours/ns, 50.504 timesteps/s
94.5% CPU use with 16 MPI tasks x no OpenMP threads

MPI task timing breakdown:
Section |  min time  |  avg time  |  max time  |%varavg| %total
---------------------------------------------------------------
Pair    | 1.5223     | 1.6744     | 1.7991     |   5.3 |  8.46
Neigh   | 0.65057    | 0.67727    | 0.71454    |   2.4 |  3.42
Comm    | 0.75078    | 0.91188    | 1.079      |   9.0 |  4.61
Output  | 11.071     | 11.414     | 16.489     |  38.8 | 57.64
Modify  | 0.040591   | 5.1148     | 5.4568     |  57.9 | 25.83
Other   |            | 0.008622   |            |       |  0.04

Nlocal:    62.5 ave 68 max 56 min
Histogram: 1 1 0 1 3 5 1 0 0 4
Nghost:    1869.06 ave 1888 max 1854 min
Histogram: 2 0 3 2 2 4 0 2 0 1
Neighs:    0 ave 0 max 0 min
Histogram: 16 0 0 0 0 0 0 0 0 0
FullNghs:  18938.4 ave 20678 max 16796 min
Histogram: 1 0 1 1 4 4 1 0 1 3

Total # of neighbors = 303014
Ave neighs/atom = 303.014
Neighbor list builds = 1000
Dangerous builds not checked
Setting up Verlet run ...
  Unit style    : real
  Current step  : 3000
  Time step     : 1
Per MPI rank memory allocation (min/avg/max) = 4.577 | 4.578 | 4.58 Mbytes
Step Temp E_pair E_mol TotEng Press Volume Lx Ly Lz S/CPU 
    3000    298.05364   -10541.071            0   -9653.5177    12057.276    780.10245    9.2055671    9.2055671    9.2055671            0 
    3100    297.41774   -10542.448            0   -9656.7892    13612.564     779.4176    9.2028725    9.2028725    9.2028725    50.542621 
    3200    297.23418   -10544.773            0   -9659.6608    17154.259    779.57103    9.2034763    9.2034763    9.2034763    45.720053 
    3300    299.69174   -10553.088            0   -9660.6574    12217.538     780.6573    9.2077491    9.2077491    9.2077491    64.294269 
    3400    298.18527   -10549.432            0   -9661.4869    12866.356    782.29972    9.2142019    9.2142019    9.2142019    52.672698 
    3500    299.09022   -10551.543            0   -9660.9031    -6945.933    784.62603    9.2233263    9.2233263    9.2233263    47.476543 
    3600    292.67735   -10529.487            0   -9657.9439    1512.2497    786.92174    9.2323129    9.2323129    9.2323129    38.679159 
    3700    280.50288   -10487.564            0   -9652.2741    1270.6435    789.13699     9.240968     9.240968     9.240968    48.877334 
    3800    289.62899   -10507.488            0   -9645.0225    -8408.942    790.96043    9.2480802    9.2480802    9.2480802    42.180303 
    3900    286.17652   -10488.881            0   -9636.6959    -17833.14    791.90502    9.2517602    9.2517602    9.2517602    54.760625 
    4000    294.53043   -10504.211            0   -9627.1497   -4830.4107    791.77457    9.2512521    9.2512521    9.2512521    42.527433 
Loop time of 20.9056 on 16 procs for 1000 steps with 1000 atoms

Performance: 4.133 ns/day, 5.807 hours/ns, 47.834 timesteps/s
94.4% CPU use with 16 MPI tasks x no OpenMP threads

MPI task timing breakdown:
Section |  min time  |  avg time  |  max time  |%varavg| %total
---------------------------------------------------------------
Pair    | 1.644      | 1.7089     | 1.8369     |   3.9 |  8.17
Neigh   | 0.66013    | 0.68709    | 0.72591    |   2.0 |  3.29
Comm    | 0.71827    | 0.88459    | 0.97639    |   6.9 |  4.23
Output  | 11.955     | 12.309     | 17.57      |  38.7 | 58.88
Modify  | 0.045851   | 5.3069     | 5.6616     |  59.0 | 25.38
Other   |            | 0.008663   |            |       |  0.04

Nlocal:    62.5 ave 68 max 54 min
Histogram: 1 0 0 0 1 6 2 3 2 1
Nghost:    1843.12 ave 1870 max 1825 min
Histogram: 1 3 2 1 3 3 2 0 0 1
Neighs:    0 ave 0 max 0 min
Histogram: 16 0 0 0 0 0 0 0 0 0
FullNghs:  18631 ave 20386 max 16092 min
Histogram: 1 0 0 1 3 4 2 2 2 1

Total # of neighbors = 298096
Ave neighs/atom = 298.096
Neighbor list builds = 1000
Dangerous builds not checked
Setting up Verlet run ...
  Unit style    : real
  Current step  : 4000
  Time step     : 1
Per MPI rank memory allocation (min/avg/max) = 4.577 | 4.578 | 4.58 Mbytes
Step Temp E_pair E_mol TotEng Press Volume Lx Ly Lz S/CPU 
    4000    294.53043   -10504.211            0   -9627.1497   -4830.4107    791.77457    9.2512521    9.2512521    9.2512521            0 
    4100    303.71968   -10520.567            0   -9616.1416   -10694.651    790.79654    9.2474414    9.2474414    9.2474414    48.551129 
    4200    285.43413   -10453.598            0   -9603.6235   -7771.2561    789.01088    9.2404757    9.2404757    9.2404757    47.966371 
    4300    298.47416    -10482.96            0    -9594.155   -488.65895    787.02481     9.232716     9.232716     9.232716    49.254381 
    4400    304.92997   -10492.409            0   -9584.3793    5030.4297    785.18086    9.2254997    9.2254997    9.2254997    44.929407 
    4500    305.67561   -10485.881            0    -9575.631    3204.8009     783.7635    9.2199453    9.2199453    9.2199453    51.793162 
    4600    293.71798   -10441.309            0   -9566.6667     18794.84    782.87277    9.2164512    9.2164512    9.2164512    45.038253 
    4700    307.00085   -10474.549            0   -9560.3527     3335.584    782.55186    9.2151917    9.2151917    9.2151917    56.989988 
    4800    308.48223    -10472.55            0   -9553.9425    -1023.591     782.6245    9.2154769    9.2154769    9.2154769    51.831634 
    4900    297.59486   -10435.719            0   -9549.5323    2073.4817    783.10124    9.2173477    9.2173477    9.2173477    41.634654 
    5000    310.86907   -10472.895            0   -9547.1804    8459.7865    784.30682    9.2220753    9.2220753    9.2220753    47.563789 
Loop time of 20.7399 on 16 procs for 1000 steps with 1000 atoms

Performance: 4.166 ns/day, 5.761 hours/ns, 48.216 timesteps/s
94.5% CPU use with 16 MPI tasks x no OpenMP threads

MPI task timing breakdown:
Section |  min time  |  avg time  |  max time  |%varavg| %total
---------------------------------------------------------------
Pair    | 1.5589     | 1.6844     | 1.9189     |   6.9 |  8.12
Neigh   | 0.64172    | 0.67762    | 0.73915    |   3.1 |  3.27
Comm    | 0.6701     | 0.96672    | 1.1259     |  11.5 |  4.66
Output  | 11.299     | 11.682     | 17.366     |  42.9 | 56.33
Modify  | 0.036974   | 5.7204     | 6.1035     |  61.4 | 27.58
Other   |            | 0.008654   |            |       |  0.04

Nlocal:    62.5 ave 66 max 58 min
Histogram: 1 1 0 3 0 2 3 4 1 1
Nghost:    1852.88 ave 1870 max 1831 min
Histogram: 1 1 0 1 2 5 2 1 1 2
Neighs:    0 ave 0 max 0 min
Histogram: 16 0 0 0 0 0 0 0 0 0
FullNghs:  18820.6 ave 19934 max 17388 min
Histogram: 1 1 0 3 1 1 3 3 2 1

Total # of neighbors = 301130
Ave neighs/atom = 301.13
Neighbor list builds = 1000
Dangerous builds not checked
Setting up Verlet run ...
  Unit style    : real
  Current step  : 5000
  Time step     : 1
Per MPI rank memory allocation (min/avg/max) = 4.577 | 4.578 | 4.58 Mbytes
Step Temp E_pair E_mol TotEng Press Volume Lx Ly Lz S/CPU 
    5000    310.86907   -10472.895            0   -9547.1804    8459.7865    784.30682    9.2220753    9.2220753    9.2220753            0 
    5100    312.37893   -10475.784            0   -9545.5727   -7588.2721    786.32345    9.2299726    9.2299726    9.2299726    57.276968 
    5200    297.91161   -10431.967            0   -9544.8366    387.82011    788.35897    9.2379301    9.2379301    9.2379301    43.397665 
    5300    309.38869   -10468.664            0   -9547.3575   -2975.9393    790.09085    9.2446898    9.2446898    9.2446898    54.948553 
    5400      297.376   -10435.127            0   -9549.5924   -8038.6086    791.88099    9.2516666    9.2516666    9.2516666     47.59132 
    5500     301.6866   -10452.098            0   -9553.7263   -4176.5015    793.08369     9.256348     9.256348     9.256348     48.38346 
    5600      297.957    -10444.75            0    -9557.485   -15755.474     793.2055    9.2568218    9.2568218    9.2568218    47.344211 
    5700     298.8345   -10451.673            0    -9561.795   -2924.1947    792.00155    9.2521361    9.2521361    9.2521361    49.066438 
    5800    310.55464   -10491.632            0   -9566.8536   -8750.7996    790.03844    9.2444854    9.2444854    9.2444854    35.186834 
    5900    296.78328   -10455.604            0   -9571.8345    1221.8347    787.45381    9.2343932    9.2343932    9.2343932    60.024772 
    6000    310.83255   -10505.138            0   -9579.5313    230.75067    784.50127    9.2228374    9.2228374    9.2228374    37.050093 
Loop time of 21.3954 on 16 procs for 1000 steps with 1000 atoms

Performance: 4.038 ns/day, 5.943 hours/ns, 46.739 timesteps/s
94.5% CPU use with 16 MPI tasks x no OpenMP threads

MPI task timing breakdown:
Section |  min time  |  avg time  |  max time  |%varavg| %total
---------------------------------------------------------------
Pair    | 1.4487     | 1.5797     | 1.813      |   6.7 |  7.38
Neigh   | 0.61882    | 0.64983    | 0.70554    |   2.9 |  3.04
Comm    | 0.74091    | 1.0293     | 1.1846     |  10.4 |  4.81
Output  | 11.697     | 12.101     | 18.1       |  44.5 | 56.56
Modify  | 0.027489   | 6.027      | 6.4307     |  63.1 | 28.17
Other   |            | 0.008406   |            |       |  0.04

Nlocal:    62.5 ave 71 max 56 min
Histogram: 2 0 3 1 5 1 2 0 1 1
Nghost:    1851.12 ave 1870 max 1835 min
Histogram: 2 1 4 0 1 1 3 2 0 2
Neighs:    0 ave 0 max 0 min
Histogram: 16 0 0 0 0 0 0 0 0 0
FullNghs:  18823 ave 21638 max 16884 min
Histogram: 2 1 2 3 3 2 1 0 1 1

Total # of neighbors = 301168
Ave neighs/atom = 301.168
Neighbor list builds = 1000
Dangerous builds not checked
Setting up Verlet run ...
  Unit style    : real
  Current step  : 6000
  Time step     : 1
Per MPI rank memory allocation (min/avg/max) = 4.577 | 4.578 | 4.58 Mbytes
Step Temp E_pair E_mol TotEng Press Volume Lx Ly Lz S/CPU 
    6000    310.83255   -10505.138            0   -9579.5313    230.75067    784.50127    9.2228374    9.2228374    9.2228374            0 
    6100    305.72148   -10498.793            0   -9588.4064    18478.668    781.87076    9.2125175    9.2125175    9.2125175    45.645037 
    6200    306.22956   -10511.405            0   -9599.5055     389.8127    780.07272    9.2054501    9.2054501    9.2054501    66.558714 
    6300    297.49206   -10498.366            0   -9612.4851   -106.93322    778.62511    9.1997523    9.1997523    9.1997523    54.376987 
    6400    298.47471   -10513.833            0   -9625.0258    16934.135    777.65295    9.1959219    9.1959219    9.1959219    46.642204 
    6500    293.77946   -10511.247            0   -9636.4215    12833.731    776.96829    9.1932224    9.1932224    9.1932224    55.196928 
    6600    288.63699   -10503.401            0   -9643.8898    5661.8347    776.91298    9.1930042    9.1930042    9.1930042    48.674563 
    6700     297.7278   -10536.618            0   -9650.0359    24254.412    777.48288    9.1952515    9.1952515    9.1952515    57.412365 
    6800    285.02673   -10501.194            0   -9652.4328    13838.553    778.82817     9.200552     9.200552     9.200552     49.00655 
    6900    293.48968   -10527.804            0   -9653.8423    14491.129    780.83745    9.2084573    9.2084573    9.2084573    47.334725 
    7000    295.34938   -10531.243            0   -9651.7431   -5676.4078    783.63017    9.2194224    9.2194224    9.2194224    48.405786 
Loop time of 19.5032 on 16 procs for 1000 steps with 1000 atoms

Performance: 4.430 ns/day, 5.418 hours/ns, 51.274 timesteps/s
94.5% CPU use with 16 MPI tasks x no OpenMP threads

MPI task timing breakdown:
Section |  min time  |  avg time  |  max time  |%varavg| %total
---------------------------------------------------------------
Pair    | 1.5306     | 1.6181     | 1.9163     |   6.9 |  8.30
Neigh   | 0.62076    | 0.65214    | 0.72943    |   3.1 |  3.34
Comm    | 0.66847    | 1.0438     | 1.1527     |  10.8 |  5.35
Output  | 10.192     | 10.568     | 16.144     |  44.3 | 54.18
Modify  | 0.036469   | 5.6131     | 5.9885     |  60.8 | 28.78
Other   |            | 0.008469   |            |       |  0.04

Nlocal:    62.5 ave 67 max 58 min
Histogram: 2 1 1 2 1 3 3 0 1 2
Nghost:    1852.88 ave 1882 max 1827 min
Histogram: 3 1 0 1 3 2 3 2 0 1
Neighs:    0 ave 0 max 0 min
Histogram: 16 0 0 0 0 0 0 0 0 0
FullNghs:  18828 ave 20259 max 17266 min
Histogram: 3 1 0 2 1 2 1 3 1 2

Total # of neighbors = 301248
Ave neighs/atom = 301.248
Neighbor list builds = 1000
Dangerous builds not checked
Setting up Verlet run ...
  Unit style    : real
  Current step  : 7000
  Time step     : 1
Per MPI rank memory allocation (min/avg/max) = 4.577 | 4.578 | 4.58 Mbytes
Step Temp E_pair E_mol TotEng Press Volume Lx Ly Lz S/CPU 
    7000    295.34938   -10531.243            0   -9651.7431   -5676.4078    783.63017    9.2194224    9.2194224    9.2194224            0 
    7100    287.95863   -10504.576            0    -9647.084   -17276.034    786.34317    9.2300497    9.2300497    9.2300497    56.931571 
    7200    287.46765   -10496.481            0   -9640.4517   -12913.054    788.25793    9.2375354    9.2375354    9.2375354    46.605108 
    7300    299.66295   -10526.685            0   -9634.3395   -13007.787    789.22915    9.2413277    9.2413277    9.2413277    51.034421 
    7400     294.5587   -10503.093            0   -9625.9473   -7471.9327    789.25991    9.2414478    9.2414478    9.2414478    51.729349 
    7500     295.9299   -10498.862            0   -9617.6337   -6276.2081     788.5879    9.2388242    9.2388242    9.2388242    52.336137 
    7600    309.25114   -10532.209            0   -9611.3122   -5138.9768    787.23503    9.2335379    9.2335379    9.2335379    52.538825 
    7700    293.53083   -10477.428            0   -9603.3437   -433.21163    785.35447    9.2261796    9.2261796    9.2261796    49.663885 
    7800    292.50976   -10469.146            0   -9598.1017   -7722.1552    783.21281    9.2177854    9.2177854    9.2177854    50.984109 
    7900    299.11315   -10483.834            0   -9593.1257   -3266.6206    781.02534    9.2091958    9.2091958    9.2091958    39.571633 
    8000     305.9253    -10502.13            0   -9591.1372      17600.6    779.21334    9.2020684    9.2020684    9.2020684     54.65572 
Loop time of 19.9405 on 16 procs for 1000 steps with 1000 atoms

Performance: 4.333 ns/day, 5.539 hours/ns, 50.149 timesteps/s
94.5% CPU use with 16 MPI tasks x no OpenMP threads

MPI task timing breakdown:
Section |  min time  |  avg time  |  max time  |%varavg| %total
---------------------------------------------------------------
Pair    | 1.4613     | 1.5836     | 1.707      |   5.1 |  7.94
Neigh   | 0.61613    | 0.64932    | 0.69815    |   2.5 |  3.26
Comm    | 0.86754    | 1.0209     | 1.1766     |   8.1 |  5.12
Output  | 11.596     | 11.915     | 16.644     |  35.4 | 59.75
Modify  | 0.033498   | 4.7631     | 5.0824     |  56.0 | 23.89
Other   |            | 0.008424   |            |       |  0.04

Nlocal:    62.5 ave 65 max 59 min
Histogram: 2 1 0 2 0 3 2 0 2 4
Nghost:    1867.56 ave 1878 max 1853 min
Histogram: 1 1 1 1 0 2 5 1 2 2
Neighs:    0 ave 0 max 0 min
Histogram: 16 0 0 0 0 0 0 0 0 0
FullNghs:  18932.8 ave 19775 max 17795 min
Histogram: 2 1 0 1 2 2 1 2 1 4

Total # of neighbors = 302924
Ave neighs/atom = 302.924
Neighbor list builds = 1000
Dangerous builds not checked
Setting up Verlet run ...
  Unit style    : real
  Current step  : 8000
  Time step     : 1
Per MPI rank memory allocation (min/avg/max) = 4.577 | 4.578 | 4.58 Mbytes
Step Temp E_pair E_mol TotEng Press Volume Lx Ly Lz S/CPU 
    8000     305.9253    -10502.13            0   -9591.1372      17600.6    779.21334    9.2020684    9.2020684    9.2020684            0 
    8100    307.06731   -10503.542            0   -9589.1479    4398.9738    778.04309    9.1974595    9.1974595    9.1974595    47.056185 
    8200    305.73749   -10498.224            0   -9587.7904    10591.826    777.62098    9.1957959    9.1957959    9.1957959    51.627524 
    8300    296.06935   -10467.051            0   -9585.4066    12398.802    777.72561    9.1962083    9.1962083    9.1962083    48.120288 
    8400    298.41968   -10474.555            0   -9585.9119    17526.267     778.6434    9.1998243    9.1998243    9.1998243    53.415818 
    8500    308.39728   -10504.961            0   -9586.6063     12800.54    780.69106    9.2078818    9.2078818    9.2078818    43.831368 
    8600    307.09828   -10504.641            0   -9590.1544    10921.801    783.54545    9.2190902    9.2190902    9.2190902    50.827306 
    8700    306.15895   -10506.221            0   -9594.5315    1638.2633    786.91558    9.2322888    9.2322888    9.2322888     46.15739 
    8800    299.66682    -10493.64            0   -9601.2834    -9177.015    790.41842    9.2459672    9.2459672    9.2459672    58.280207 
    8900    301.77833    -10504.77            0   -9606.1256   -6971.7263    793.72509    9.2588426    9.2588426    9.2588426    61.344373 
    9000    304.51335   -10519.961            0   -9613.1718   -15996.516    796.29796     9.268836     9.268836     9.268836    46.702343 
Loop time of 19.9149 on 16 procs for 1000 steps with 1000 atoms

Performance: 4.338 ns/day, 5.532 hours/ns, 50.214 timesteps/s
94.5% CPU use with 16 MPI tasks x no OpenMP threads

MPI task timing breakdown:
Section |  min time  |  avg time  |  max time  |%varavg| %total
---------------------------------------------------------------
Pair    | 1.5203     | 1.5899     | 1.8299     |   5.8 |  7.98
Neigh   | 0.62565    | 0.64899    | 0.71591    |   3.2 |  3.26
Comm    | 0.74286    | 1.0493     | 1.1391     |   9.4 |  5.27
Output  | 11.308     | 11.641     | 16.579     |  37.4 | 58.45
Modify  | 0.038958   | 4.9773     | 5.3101     |  57.2 | 24.99
Other   |            | 0.008442   |            |       |  0.04

Nlocal:    62.5 ave 68 max 59 min
Histogram: 4 1 1 1 4 1 2 0 1 1
Nghost:    1842.81 ave 1855 max 1827 min
Histogram: 1 1 2 1 2 2 0 1 3 3
Neighs:    0 ave 0 max 0 min
Histogram: 16 0 0 0 0 0 0 0 0 0
FullNghs:  18545.5 ave 20016 max 17351 min
Histogram: 4 1 0 2 1 3 1 2 0 2

Total # of neighbors = 296728
Ave neighs/atom = 296.728
Neighbor list builds = 1000
Dangerous builds not checked
Setting up Verlet run ...
  Unit style    : real
  Current step  : 9000
  Time step     : 1
Per MPI rank memory allocation (min/avg/max) = 4.577 | 4.578 | 4.58 Mbytes
Step Temp E_pair E_mol TotEng Press Volume Lx Ly Lz S/CPU 
    9000    304.51335   -10519.961            0   -9613.1718   -15996.516    796.29796     9.268836     9.268836     9.268836            0 
    9100    297.85655   -10505.004            0   -9618.0382    -17207.97    797.77884    9.2745783    9.2745783    9.2745783    57.177594 
    9200    289.31231   -10485.967            0   -9624.4444   -19616.984    797.97587    9.2753417    9.2753417    9.2753417    43.284822 
    9300    286.91998   -10484.985            0   -9630.5867   -27981.234    796.62031    9.2700866    9.2700866    9.2700866    46.530303 
    9400    294.72877   -10514.129            0   -9636.4771   -20157.079    793.98464    9.2598517    9.2598517    9.2598517    62.128358 
    9500    291.93857   -10513.067            0   -9643.7236    8818.4113     790.5342    9.2464187    9.2464187    9.2464187    54.719936 
    9600    296.51763   -10534.816            0   -9651.8373   -14343.136    787.06607    9.2328773    9.2328773    9.2328773    44.362471 
    9700    299.68831   -10553.962            0   -9661.5416     5517.802    783.44989    9.2187154    9.2187154    9.2187154    59.761807 
    9800    287.62916   -10530.099            0   -9673.5886    8489.1666    780.13619    9.2056998    9.2056998    9.2056998    53.960367 
    9900    279.30855   -10517.106            0   -9685.3725   -9187.4627     777.1907    9.1940995    9.1940995    9.1940995    49.127593 
   10000    289.32185   -10557.718            0   -9696.1665    15953.788    774.62649    9.1839769    9.1839769    9.1839769     40.87533 
Loop time of 19.9081 on 16 procs for 1000 steps with 1000 atoms

Performance: 4.340 ns/day, 5.530 hours/ns, 50.231 timesteps/s
94.5% CPU use with 16 MPI tasks x no OpenMP threads

MPI task timing breakdown:
Section |  min time  |  avg time  |  max time  |%varavg| %total
---------------------------------------------------------------
Pair    | 1.524      | 1.5768     | 1.7077     |   3.8 |  7.92
Neigh   | 0.62634    | 0.64999    | 0.70248    |   2.9 |  3.26
Comm    | 0.80887    | 0.99268    | 1.0618     |   7.0 |  4.99
Output  | 10.8       | 11.169     | 16.645     |  42.3 | 56.10
Modify  | 0.034789   | 5.5113     | 5.8804     |  60.2 | 27.68
Other   |            | 0.008423   |            |       |  0.04

Nlocal:    62.5 ave 67 max 56 min
Histogram: 1 0 1 2 2 1 1 5 1 2
Nghost:    1865.12 ave 1879 max 1855 min
Histogram: 2 1 1 3 3 2 3 0 0 1
Neighs:    0 ave 0 max 0 min
Histogram: 16 0 0 0 0 0 0 0 0 0
FullNghs:  19060.9 ave 20479 max 17005 min
Histogram: 1 0 1 2 2 0 4 4 0 2

Total # of neighbors = 304974
Ave neighs/atom = 304.974
Neighbor list builds = 1000
Dangerous builds not checked
Setting up Verlet run ...
  Unit style    : real
  Current step  : 10000
  Time step     : 1
Per MPI rank memory allocation (min/avg/max) = 4.577 | 4.578 | 4.58 Mbytes
Step Temp E_pair E_mol TotEng Press Volume Lx Ly Lz S/CPU 
   10000    289.32185   -10557.718            0   -9696.1665    15953.788    774.62649    9.1839769    9.1839769    9.1839769            0 
   10100    300.00966   -10598.972            0   -9705.5945    18526.299    773.00628    9.1775693    9.1775693    9.1775693    46.930022 
   10200    292.84503   -10585.311            0   -9713.2684    4848.7967    772.38036    9.1750916    9.1750916    9.1750916    46.554328 
   10300    281.40562   -10555.352            0   -9717.3738    20559.746    772.30247    9.1747831    9.1747831    9.1747831     55.66063 
   10400    291.45598   -10588.039            0   -9720.1333    6445.3489     772.9963    9.1775298    9.1775298    9.1775298    50.551107 
   10500    285.74114   -10569.334            0   -9718.4455    2460.7367    774.07882     9.181812     9.181812     9.181812     46.83675 
   10600    285.90295   -10565.545            0   -9714.1753    21318.776    775.55255    9.1876352    9.1876352    9.1876352    44.813524 
   10700    284.36973   -10551.599            0   -9704.7943   -2192.8836    777.41296    9.1949758    9.1949758    9.1949758    39.412841 
   10800    277.53441   -10520.106            0   -9693.6563   -12009.371    779.17902    9.2019334    9.2019334    9.2019334    59.567239 
   10900    297.79117   -10567.616            0   -9680.8448    14048.766    780.39953    9.2067355    9.2067355    9.2067355    37.127469 
   11000    280.65233    -10503.73            0   -9667.9951   -8664.5397    781.87144    9.2125201    9.2125201    9.2125201    50.306476 
Loop time of 21.3175 on 16 procs for 1000 steps with 1000 atoms

Performance: 4.053 ns/day, 5.922 hours/ns, 46.910 timesteps/s
94.4% CPU use with 16 MPI tasks x no OpenMP threads

MPI task timing breakdown:
Section |  min time  |  avg time  |  max time  |%varavg| %total
---------------------------------------------------------------
Pair    | 1.5447     | 1.631      | 1.8277     |   5.6 |  7.65
Neigh   | 0.62433    | 0.65441    | 0.70998    |   3.2 |  3.07
Comm    | 0.74302    | 0.99507    | 1.1063     |   9.7 |  4.67
Output  | 11.891     | 12.276     | 18.002     |  42.2 | 57.59
Modify  | 0.026116   | 5.7523     | 6.138      |  61.6 | 26.98
Other   |            | 0.008451   |            |       |  0.04

Nlocal:    62.5 ave 68 max 57 min
Histogram: 1 1 3 1 0 5 1 2 1 1
Nghost:    1853.81 ave 1865 max 1834 min
Histogram: 1 0 1 1 0 1 4 4 3 1
Neighs:    0 ave 0 max 0 min
Histogram: 16 0 0 0 0 0 0 0 0 0
FullNghs:  18888.4 ave 20373 max 17020 min
Histogram: 1 0 3 1 1 1 4 2 2 1

Total # of neighbors = 302214
Ave neighs/atom = 302.214
Neighbor list builds = 1000
Dangerous builds not checked
Setting up Verlet run ...
  Unit style    : real
  Current step  : 11000
  Time step     : 1
Per MPI rank memory allocation (min/avg/max) = 4.577 | 4.578 | 4.58 Mbytes
Step Temp E_pair E_mol TotEng Press Volume Lx Ly Lz S/CPU 
   11000    280.65233    -10503.73            0   -9667.9951   -8664.5397    781.87144    9.2125201    9.2125201    9.2125201            0 
   11100     294.8704   -10537.059            0    -9658.985    -2227.095    783.01618     9.217014     9.217014     9.217014    42.541469 
   11200    298.31962   -10539.681            0   -9651.3358   -8647.8508    784.07984    9.2211856    9.2211856    9.2211856    46.876377 
   11300    299.06586   -10536.031            0   -9645.4636    5418.6892    784.94949    9.2245935    9.2245935    9.2245935    47.280336 
   11400    294.19902   -10515.321            0   -9639.2469    -12429.39     785.6812    9.2274589    9.2274589    9.2274589    45.190035 
   11500    311.67998   -10563.526            0   -9635.3965    572.42461    785.93819    9.2284649    9.2284649    9.2284649    54.677137 
   11600    305.46036   -10539.389            0   -9629.7803   -10169.324    786.03561    9.2288462    9.2288462    9.2288462    52.977736 
   11700    307.25168    -10539.23            0   -9624.2866    7398.1645    786.23622    9.2296312    9.2296312    9.2296312    40.499755 
   11800    306.59706   -10531.504            0   -9618.5102   -1683.1373    786.61796    9.2311248    9.2311248    9.2311248    61.132431 
   11900     290.3502   -10476.219            0   -9611.6053    543.80782    786.44233    9.2304377    9.2304377    9.2304377    47.006077 
   12000    285.78579   -10454.996            0   -9603.9747    -2476.292    786.21597     9.229552     9.229552     9.229552    44.499248 
Loop time of 21.008 on 16 procs for 1000 steps with 1000 atoms

Performance: 4.113 ns/day, 5.836 hours/ns, 47.601 timesteps/s
94.4% CPU use with 16 MPI tasks x no OpenMP threads

MPI task timing breakdown:
Section |  min time  |  avg time  |  max time  |%varavg| %total
---------------------------------------------------------------
Pair    | 1.4086     | 1.5416     | 1.6735     |   6.1 |  7.34
Neigh   | 0.59344    | 0.63362    | 0.69219    |   3.3 |  3.02
Comm    | 0.84876    | 1.039      | 1.2129     |   9.7 |  4.95
Output  | 12.257     | 12.604     | 17.757     |  37.5 | 60.00
Modify  | 0.028544   | 5.181      | 5.5287     |  58.4 | 24.66
Other   |            | 0.008396   |            |       |  0.04

Nlocal:    62.5 ave 69 max 55 min
Histogram: 1 0 0 3 2 4 3 1 0 2
Nghost:    1856.69 ave 1889 max 1836 min
Histogram: 3 1 1 4 1 3 2 0 0 1
Neighs:    0 ave 0 max 0 min
Histogram: 16 0 0 0 0 0 0 0 0 0
FullNghs:  18790.4 ave 21002 max 16331 min
Histogram: 1 0 0 3 4 2 4 0 1 1

Total # of neighbors = 300646
Ave neighs/atom = 300.646
Neighbor list builds = 1000
Dangerous builds not checked
Setting up Verlet run ...
  Unit style    : real
  Current step  : 12000
  Time step     : 1
Per MPI rank memory allocation (min/avg/max) = 4.577 | 4.578 | 4.58 Mbytes
Step Temp E_pair E_mol TotEng Press Volume Lx Ly Lz S/CPU 
   12000    285.78579   -10454.996            0   -9603.9747    -2476.292    786.21597     9.229552     9.229552     9.229552            0 
   12100    308.45086   -10514.458            0   -9595.9436    6518.9748    786.06031    9.2289429    9.2289429    9.2289429    53.409357 
   12200    302.61773   -10489.715            0   -9588.5707   -4710.0522    786.08918    9.2290558    9.2290558    9.2290558    49.689593 
   12300    306.02546   -10492.025            0    -9580.733    3325.7582    786.21223    9.2295374    9.2295374    9.2295374    39.484318 
   12400    303.03786   -10476.915            0   -9574.5204   -17902.561    786.14386    9.2292698    9.2292698    9.2292698    46.221858 
   12500    299.02248   -10460.382            0   -9569.9442   -2075.1727    785.81171    9.2279698    9.2279698    9.2279698      44.5952 
   12600    306.51426   -10479.754            0    -9567.007   -7044.5424    785.35013    9.2261627    9.2261627    9.2261627    35.103029 
   12700    293.11724   -10436.088            0   -9563.2345   -5364.3838    784.52548    9.2229322    9.2229322    9.2229322    43.836239 
   12800    313.82698   -10497.804            0   -9563.2805    6991.9398    783.50165    9.2189184    9.2189184    9.2189184    46.040338 
   12900     297.8023   -10448.388            0   -9561.5831    -2692.517    782.47188    9.2148778    9.2148778    9.2148778     51.26287 
   13000    299.19868   -10454.033            0   -9563.0701   -9475.9677    781.48587    9.2110055    9.2110055    9.2110055    46.436002 
Loop time of 22.2296 on 16 procs for 1000 steps with 1000 atoms

Performance: 3.887 ns/day, 6.175 hours/ns, 44.985 timesteps/s
94.4% CPU use with 16 MPI tasks x no OpenMP threads

MPI task timing breakdown:
Section |  min time  |  avg time  |  max time  |%varavg| %total
---------------------------------------------------------------
Pair    | 1.4051     | 1.5419     | 1.7237     |   6.4 |  6.94
Neigh   | 0.59237    | 0.63124    | 0.68493    |   3.2 |  2.84
Comm    | 0.82536    | 1.0611     | 1.2372     |  10.1 |  4.77
Output  | 12.538     | 12.942     | 18.957     |  43.2 | 58.22
Modify  | 0.030458   | 6.0446     | 6.4496     |  63.2 | 27.19
Other   |            | 0.008285   |            |       |  0.04

Nlocal:    62.5 ave 67 max 56 min
Histogram: 1 3 0 0 1 2 2 2 1 4
Nghost:    1856.94 ave 1875 max 1841 min
Histogram: 2 0 2 3 1 3 2 1 1 1
Neighs:    0 ave 0 max 0 min
Histogram: 16 0 0 0 0 0 0 0 0 0
FullNghs:  18888.9 ave 20439 max 17016 min
Histogram: 1 3 0 0 3 1 3 1 2 2

Total # of neighbors = 302222
Ave neighs/atom = 302.222
Neighbor list builds = 1000
Dangerous builds not checked
Setting up Verlet run ...
  Unit style    : real
  Current step  : 13000
  Time step     : 1
Per MPI rank memory allocation (min/avg/max) = 4.577 | 4.578 | 4.58 Mbytes
Step Temp E_pair E_mol TotEng Press Volume Lx Ly Lz S/CPU 
   13000    299.19868   -10454.033            0   -9563.0701   -9475.9677    781.48587    9.2110055    9.2110055    9.2110055            0 
   13100     304.6735   -10472.532            0   -9565.2666    15315.381    780.59296    9.2074961    9.2074961    9.2074961    41.994789 
   13200    302.49506   -10469.734            0   -9568.9558    17080.381    780.26245    9.2061964    9.2061964    9.2061964    42.051522 
   13300    299.97359   -10467.466            0   -9574.1958    5510.2862    780.58372    9.2074598    9.2074598    9.2074598    40.245431 
   13400    304.26795    -10487.81            0   -9581.7518    5353.3607     781.4273    9.2107754    9.2107754    9.2107754    46.077606 
   13500    298.77281   -10484.013            0   -9594.3191   -8709.6485    782.82614    9.2162682    9.2162682    9.2162682    47.529185 
   13600    290.97343   -10474.343            0   -9607.8739   -514.80036    784.08588    9.2212092    9.2212092    9.2212092    55.458141 
   13700    304.40806   -10529.667            0    -9623.192   -19579.827    784.92519    9.2244983    9.2244983    9.2244983     36.09776 
   13800    306.69366   -10549.565            0   -9636.2841   -10184.772    784.99206    9.2247603    9.2247603    9.2247603    47.655451 
   13900    300.09785   -10538.805            0   -9645.1645   -9393.5316     784.6722    9.2235071    9.2235071    9.2235071    57.683746 
   14000    291.04981   -10516.062            0   -9649.3657   -3122.7581    783.89912    9.2204771    9.2204771    9.2204771    47.163805 
Loop time of 22.044 on 16 procs for 1000 steps with 1000 atoms

Performance: 3.919 ns/day, 6.123 hours/ns, 45.364 timesteps/s
94.4% CPU use with 16 MPI tasks x no OpenMP threads

MPI task timing breakdown:
Section |  min time  |  avg time  |  max time  |%varavg| %total
---------------------------------------------------------------
Pair    | 1.5043     | 1.604      | 1.8013     |   6.9 |  7.28
Neigh   | 0.61412    | 0.6511     | 0.703      |   3.0 |  2.95
Comm    | 0.79486    | 1.0436     | 1.18       |  10.7 |  4.73
Output  | 12.865     | 13.233     | 18.699     |  38.8 | 60.03
Modify  | 0.037123   | 5.5041     | 5.8727     |  60.2 | 24.97
Other   |            | 0.008401   |            |       |  0.04

Nlocal:    62.5 ave 69 max 57 min
Histogram: 2 2 1 1 2 4 0 1 2 1
Nghost:    1852.81 ave 1876 max 1835 min
Histogram: 3 3 1 1 0 2 3 0 1 2
Neighs:    0 ave 0 max 0 min
Histogram: 16 0 0 0 0 0 0 0 0 0
FullNghs:  18838.8 ave 20964 max 17015 min
Histogram: 1 3 1 2 3 1 1 3 0 1

Total # of neighbors = 301420
Ave neighs/atom = 301.42
Neighbor list builds = 1000
Dangerous builds not checked
Setting up Verlet run ...
  Unit style    : real
  Current step  : 14000
  Time step     : 1
Per MPI rank memory allocation (min/avg/max) = 4.577 | 4.578 | 4.58 Mbytes
Step Temp E_pair E_mol TotEng Press Volume Lx Ly Lz S/CPU 
   14000    291.04981   -10516.062            0   -9649.3657   -3122.7581    783.89912    9.2204771    9.2204771    9.2204771            0 
   14100    301.52578   -10551.298            0    -9653.406   -3530.6331    782.75783    9.2160001    9.2160001    9.2160001    48.940662 
   14200     287.0977   -10509.165            0   -9654.2367   -18202.511    781.38055    9.2105917    9.2105917    9.2105917    48.034869 
   14300    290.98071   -10519.757            0   -9653.2664   -7250.3211     779.3581    9.2026383    9.2026383    9.2026383    56.166788 
   14400    289.72202   -10512.967            0    -9650.224    8409.2685    776.84748    9.1927459    9.1927459    9.1927459    53.200912 
   14500    288.84842   -10506.171            0   -9646.0301     5786.686    774.44492    9.1832593    9.1832593    9.1832593    46.903779 
   14600    301.64792   -10540.227            0   -9641.9715    18592.936    772.57034    9.1758438    9.1758438    9.1758438    40.053793 
   14700    294.96976    -10513.42            0   -9635.0503   -1993.4722    771.29522    9.1707928    9.1707928    9.1707928    53.880467 
   14800    293.58008   -10503.064            0   -9628.8323     8395.752    770.71278    9.1684838    9.1684838    9.1684838    39.651097 
   14900    299.05451   -10512.181            0   -9621.6475    28690.767    771.04375     9.169796     9.169796     9.169796    63.088258 
   15000    296.85478   -10496.984            0   -9613.0012    26830.191    772.51118    9.1756095    9.1756095    9.1756095    51.601783 
Loop time of 20.3148 on 16 procs for 1000 steps with 1000 atoms

Performance: 4.253 ns/day, 5.643 hours/ns, 49.225 timesteps/s
94.4% CPU use with 16 MPI tasks x no OpenMP threads

MPI task timing breakdown:
Section |  min time  |  avg time  |  max time  |%varavg| %total
---------------------------------------------------------------
Pair    | 1.5141     | 1.6026     | 1.7773     |   5.1 |  7.89
Neigh   | 0.61671    | 0.64321    | 0.69053    |   2.9 |  3.17
Comm    | 0.82381    | 1.0455     | 1.1594     |   8.3 |  5.15
Output  | 11.176     | 11.543     | 16.98      |  41.3 | 56.82
Modify  | 0.034219   | 5.4726     | 5.8397     |  60.0 | 26.94
Other   |            | 0.008408   |            |       |  0.04

Nlocal:    62.5 ave 70 max 59 min
Histogram: 5 0 4 3 2 0 0 1 0 1
Nghost:    1870.5 ave 1886 max 1854 min
Histogram: 1 2 0 0 2 7 1 1 1 1
Neighs:    0 ave 0 max 0 min
Histogram: 16 0 0 0 0 0 0 0 0 0
FullNghs:  19113.1 ave 21393 max 18035 min
Histogram: 4 1 3 4 2 0 0 1 0 1

Total # of neighbors = 305810
Ave neighs/atom = 305.81
Neighbor list builds = 1000
Dangerous builds not checked
Setting up Verlet run ...
  Unit style    : real
  Current step  : 15000
  Time step     : 1
Per MPI rank memory allocation (min/avg/max) = 4.577 | 4.578 | 4.58 Mbytes
Step Temp E_pair E_mol TotEng Press Volume Lx Ly Lz S/CPU 
   15000    296.85478   -10496.984            0   -9613.0012    26830.191    772.51118    9.1756095    9.1756095    9.1756095            0 
   15100    297.82902   -10492.373            0   -9605.4891    11706.992    775.44931    9.1872275    9.1872275    9.1872275    37.891607 
   15200    306.60505   -10510.962            0   -9597.9446    6623.3346     779.6029    9.2036017    9.2036017    9.2036017    45.330713 
   15300    301.27825   -10488.225            0   -9591.0699   -3502.0318    784.24469    9.2218318    9.2218318    9.2218318    35.080433 
   15400    293.44557   -10458.463            0    -9584.632     3079.687    788.21836    9.2373808    9.2373808    9.2373808    49.809934 
   15500    308.15038   -10500.265            0    -9582.646   -10196.687    791.40315    9.2498053    9.2498053    9.2498053    56.309123 
   15600    311.79996   -10507.975            0   -9579.4881   -10027.491    793.26643    9.2570589    9.2570589    9.2570589    47.334057 
   15700     308.4495   -10496.879            0   -9578.3695   -11874.948    794.13056     9.260419     9.260419     9.260419    49.450507 
   15800    294.75117    -10455.32            0   -9577.6018    -18213.12    794.31324     9.261129     9.261129     9.261129    51.025832 
   15900    306.50758   -10490.389            0   -9577.6614   -12049.283    793.83112    9.2592549    9.2592549    9.2592549    29.128658 
   16000    294.05909    -10452.44            0   -9576.7821   -5239.6439    792.82683    9.2553486    9.2553486    9.2553486     51.53539 
Loop time of 22.9474 on 16 procs for 1000 steps with 1000 atoms

Performance: 3.765 ns/day, 6.374 hours/ns, 43.578 timesteps/s
94.4% CPU use with 16 MPI tasks x no OpenMP threads

MPI task timing breakdown:
Section |  min time  |  avg time  |  max time  |%varavg| %total
---------------------------------------------------------------
Pair    | 1.4784     | 1.5931     | 1.8334     |   6.2 |  6.94
Neigh   | 0.61028    | 0.65206    | 0.72939    |   3.3 |  2.84
Comm    | 0.68686    | 1.0043     | 1.1612     |  10.3 |  4.38
Output  | 13.665     | 14.043     | 19.652     |  38.6 | 61.19
Modify  | 0.037091   | 5.6469     | 6.0247     |  61.0 | 24.61
Other   |            | 0.008401   |            |       |  0.04

Nlocal:    62.5 ave 68 max 58 min
Histogram: 1 2 2 1 3 2 1 0 2 2
Nghost:    1847.44 ave 1869 max 1832 min
Histogram: 1 2 4 1 3 1 2 1 0 1
Neighs:    0 ave 0 max 0 min
Histogram: 16 0 0 0 0 0 0 0 0 0
FullNghs:  18627.8 ave 20431 max 17218 min
Histogram: 1 4 1 2 2 1 1 2 1 1

Total # of neighbors = 298044
Ave neighs/atom = 298.044
Neighbor list builds = 1000
Dangerous builds not checked
Setting up Verlet run ...
  Unit style    : real
  Current step  : 16000
  Time step     : 1
Per MPI rank memory allocation (min/avg/max) = 4.577 | 4.578 | 4.58 Mbytes
Step Temp E_pair E_mol TotEng Press Volume Lx Ly Lz S/CPU 
   16000    294.05909    -10452.44            0   -9576.7821   -5239.6439    792.82683    9.2553486    9.2553486    9.2553486            0 
   16100    302.05773   -10477.948            0   -9578.4712   -8879.4253    791.17528    9.2489174    9.2489174    9.2489174      41.2366 
   16200     300.0033   -10472.387            0   -9579.0287   -10744.858    789.14669    9.2410059    9.2410059    9.2410059     59.09964 
   16300    311.56813   -10508.531            0   -9580.7344   -2042.1767    786.61287    9.2311048    9.2311048    9.2311048    50.420178 
   16400    303.14661   -10482.225            0   -9579.5058    1284.6906    783.88394    9.2204175    9.2204175    9.2204175    51.384092 
   16500    312.61154   -10510.068            0   -9579.1645    8359.4248    781.49191    9.2110293    9.2110293    9.2110293    42.838521 
   16600    296.32964   -10460.037            0   -9577.6184    10468.457    779.76491    9.2042392    9.2042392    9.2042392    48.882759 
   16700    298.20977   -10466.585            0   -9578.5677    10249.991    778.69523    9.2000285    9.2000285    9.2000285    44.563092 
   16800    304.57634   -10488.797            0   -9581.8207   -1663.2378    778.33401    9.1986057    9.1986057    9.1986057    48.049709 
   16900     307.5433   -10500.592            0   -9584.7805    4369.9475    778.37737    9.1987765    9.1987765    9.1987765    63.093346 
   17000    296.42835   -10473.787            0   -9591.0737    848.69532    778.68878    9.2000031    9.2000031    9.2000031     49.75204 
Loop time of 20.3468 on 16 procs for 1000 steps with 1000 atoms

Performance: 4.246 ns/day, 5.652 hours/ns, 49.148 timesteps/s
94.5% CPU use with 16 MPI tasks x no OpenMP threads

MPI task timing breakdown:
Section |  min time  |  avg time  |  max time  |%varavg| %total
---------------------------------------------------------------
Pair    | 1.4119     | 1.5731     | 1.8441     |   7.8 |  7.73
Neigh   | 0.59796    | 0.63998    | 0.71684    |   3.5 |  3.15
Comm    | 0.69956    | 1.0468     | 1.2499     |  12.1 |  5.14
Output  | 11.493     | 11.844     | 17.049     |  39.0 | 58.21
Modify  | 0.027792   | 5.2341     | 5.5854     |  58.8 | 25.72
Other   |            | 0.008364   |            |       |  0.04

Nlocal:    62.5 ave 70 max 55 min
Histogram: 1 1 1 1 3 3 3 1 1 1
Nghost:    1855.44 ave 1877 max 1836 min
Histogram: 1 0 1 4 2 4 2 1 0 1
Neighs:    0 ave 0 max 0 min
Histogram: 16 0 0 0 0 0 0 0 0 0
FullNghs:  18966 ave 21280 max 16743 min
Histogram: 1 1 2 2 2 2 3 2 0 1

Total # of neighbors = 303456
Ave neighs/atom = 303.456
Neighbor list builds = 1000
Dangerous builds not checked
Setting up Verlet run ...
  Unit style    : real
  Current step  : 17000
  Time step     : 1
Per MPI rank memory allocation (min/avg/max) = 4.577 | 4.578 | 4.58 Mbytes
Step Temp E_pair E_mol TotEng Press Volume Lx Ly Lz S/CPU 
   17000    296.42835   -10473.787            0   -9591.0737    848.69532    778.68878    9.2000031    9.2000031    9.2000031            0 
   17100    292.62174   -10470.633            0   -9599.2552    5307.1977    779.40229    9.2028122    9.2028122    9.2028122    56.950314 
   17200    298.25012   -10499.904            0   -9611.7663   -3688.6284    780.33774    9.2064925    9.2064925    9.2064925    58.614997 
   17300    285.62012   -10475.365            0   -9624.8372   -9975.2899    780.95065    9.2089023    9.2089023    9.2089023    34.474826 
   17400    295.21331   -10518.335            0   -9639.2402   -8926.1209    781.15526    9.2097064    9.2097064    9.2097064     60.00011 
   17500    290.35366   -10514.405            0   -9649.7809    1992.4562    781.21862    9.2099554    9.2099554    9.2099554     56.97418 
   17600    292.10299   -10528.073            0   -9658.2406    9386.0081    781.48502    9.2110022    9.2110022    9.2110022    46.615703 
   17700     300.6124   -10557.817            0   -9662.6444   -7689.8584    781.69249    9.2118172    9.2118172    9.2118172    60.635113 
   17800    293.22923   -10537.477            0   -9664.2902   -5503.3187    781.54258    9.2112283    9.2112283    9.2112283    43.033915 
   17900    285.22381   -10512.972            0   -9663.6239    13763.515    781.13301     9.209619     9.209619     9.209619    42.514922 
   18000    280.92719   -10496.496            0   -9659.9423    2857.5988    780.54399    9.2073036    9.2073036    9.2073036    55.059956 
Loop time of 20.071 on 16 procs for 1000 steps with 1000 atoms

Performance: 4.305 ns/day, 5.575 hours/ns, 49.823 timesteps/s
94.5% CPU use with 16 MPI tasks x no OpenMP threads

MPI task timing breakdown:
Section |  min time  |  avg time  |  max time  |%varavg| %total
---------------------------------------------------------------
Pair    | 1.4812     | 1.594      | 1.9098     |   7.6 |  7.94
Neigh   | 0.60999    | 0.64476    | 0.72512    |   3.6 |  3.21
Comm    | 0.6512     | 1.0468     | 1.1939     |  11.9 |  5.22
Output  | 11.39      | 11.729     | 16.747     |  37.8 | 58.44
Modify  | 0.029501   | 5.0484     | 5.387      |  57.7 | 25.15
Other   |            | 0.008408   |            |       |  0.04

Nlocal:    62.5 ave 70 max 56 min
Histogram: 1 1 3 2 1 3 3 0 0 2
Nghost:    1860.88 ave 1877 max 1839 min
Histogram: 1 0 0 1 2 7 1 1 1 2
Neighs:    0 ave 0 max 0 min
Histogram: 16 0 0 0 0 0 0 0 0 0
FullNghs:  18904.9 ave 21299 max 16648 min
Histogram: 1 1 2 3 1 3 2 1 0 2

Total # of neighbors = 302478
Ave neighs/atom = 302.478
Neighbor list builds = 1000
Dangerous builds not checked
Setting up Verlet run ...
  Unit style    : real
  Current step  : 18000
  Time step     : 1
Per MPI rank memory allocation (min/avg/max) = 4.577 | 4.578 | 4.58 Mbytes
Step Temp E_pair E_mol TotEng Press Volume Lx Ly Lz S/CPU 
   18000    280.92719   -10496.496            0   -9659.9423    2857.5988    780.54399    9.2073036    9.2073036    9.2073036            0 
   18100    306.40779   -10571.484            0   -9659.0537   -1657.7982    779.74828    9.2041738    9.2041738    9.2041738     37.82909 
   18200    289.27221   -10513.217            0   -9651.8142   -7878.6838    778.56413    9.1995122    9.1995122    9.1995122    53.234165 
   18300    299.68126   -10539.625            0   -9647.2259    11681.362    777.26598    9.1943963    9.1943963    9.1943963    53.857216 
   18400    295.38889   -10521.167            0   -9641.5489    17046.538    776.63627    9.1919127    9.1919127    9.1919127    47.572368 
   18500    298.11304   -10523.701            0   -9635.9711    5663.3252    776.85269    9.1927664    9.1927664    9.1927664    57.304275 
   18600    295.21582   -10509.976            0   -9630.8733    6488.6636    777.79758     9.196492     9.196492     9.196492    55.282832 
   18700    299.97392   -10519.371            0   -9626.0999    18847.495      779.761    9.2042238    9.2042238    9.2042238    46.742037 
   18800    300.94632   -10518.894            0   -9622.7269    10024.683    782.38075      9.21452      9.21452      9.21452    50.366974 
   18900    290.99866   -10485.138            0   -9618.5936   -4977.8404     785.2348     9.225711     9.225711     9.225711    56.830032 
   19000    284.72814   -10462.639            0   -9614.7671    -2173.222     787.7837    9.2356826    9.2356826    9.2356826    36.882595 
Loop time of 20.6305 on 16 procs for 1000 steps with 1000 atoms

Performance: 4.188 ns/day, 5.731 hours/ns, 48.472 timesteps/s
94.4% CPU use with 16 MPI tasks x no OpenMP threads

MPI task timing breakdown:
Section |  min time  |  avg time  |  max time  |%varavg| %total
---------------------------------------------------------------
Pair    | 1.4714     | 1.5891     | 1.7601     |   6.3 |  7.70
Neigh   | 0.60994    | 0.64497    | 0.6993     |   2.9 |  3.13
Comm    | 0.82204    | 1.0415     | 1.1937     |   9.7 |  5.05
Output  | 11.59      | 11.951     | 17.315     |  40.1 | 57.93
Modify  | 0.031132   | 5.3954     | 5.7566     |  59.6 | 26.15
Other   |            | 0.008406   |            |       |  0.04

Nlocal:    62.5 ave 67 max 58 min
Histogram: 1 2 2 2 1 2 0 3 2 1
Nghost:    1853.12 ave 1865 max 1840 min
Histogram: 2 0 2 0 3 2 4 0 1 2
Neighs:    0 ave 0 max 0 min
Histogram: 16 0 0 0 0 0 0 0 0 0
FullNghs:  18727.5 ave 20154 max 17189 min
Histogram: 1 2 2 2 1 1 1 1 4 1

Total # of neighbors = 299640
Ave neighs/atom = 299.64
Neighbor list builds = 1000
Dangerous builds not checked
Setting up Verlet run ...
  Unit style    : real
  Current step  : 19000
  Time step     : 1
Per MPI rank memory allocation (min/avg/max) = 4.577 | 4.578 | 4.58 Mbytes
Step Temp E_pair E_mol TotEng Press Volume Lx Ly Lz S/CPU 
   19000    284.72814   -10462.639            0   -9614.7671    -2173.222     787.7837    9.2356826    9.2356826    9.2356826            0 
   19100    287.53285   -10467.376            0   -9611.1519    1603.6414    789.76453    9.2434169    9.2434169    9.2434169    57.460914 
   19200    300.47083   -10503.749            0   -9608.9986   -8789.1872    791.09411    9.2486011    9.2486011    9.2486011    56.720887 
   19300    293.31426    -10479.23            0   -9605.7898   -5110.1886    791.55264    9.2503877    9.2503877    9.2503877    52.631959 
   19400    298.58152   -10492.332            0   -9603.2071    7380.8232      791.595    9.2505527    9.2505527    9.2505527    56.544127 
   19500    304.30863    -10505.91            0   -9599.7311   -11752.825    791.32734      9.24951      9.24951      9.24951    62.493219 
   19600    304.79013   -10504.078            0   -9596.4654   -2168.7044    790.86672    9.2477149    9.2477149    9.2477149    53.767154 
   19700    314.43227   -10530.801            0   -9594.4749   -12133.169    790.24396    9.2452869    9.2452869    9.2452869    52.641106 
   19800    303.54684   -10494.483            0   -9590.5722   -2538.0132    789.42846    9.2421056    9.2421056    9.2421056    51.681909 
   19900    306.32602   -10501.228            0   -9589.0415    5439.5258    788.59447    9.2388499    9.2388499    9.2388499    50.755411 
   20000    307.71463   -10503.605            0   -9587.2832    8157.6585    787.77861    9.2356627    9.2356627    9.2356627    58.770045 
Loop time of 18.1383 on 16 procs for 1000 steps with 1000 atoms

Performance: 4.763 ns/day, 5.038 hours/ns, 55.132 timesteps/s
94.5% CPU use with 16 MPI tasks x no OpenMP threads

MPI task timing breakdown:
Section |  min time  |  avg time  |  max time  |%varavg| %total
---------------------------------------------------------------
Pair    | 1.3976     | 1.5475     | 1.7673     |   6.3 |  8.53
Neigh   | 0.58811    | 0.64083    | 0.7049     |   3.1 |  3.53
Comm    | 0.72706    | 1.0105     | 1.2129     |  10.1 |  5.57
Output  | 9.6263     | 9.9595     | 14.901     |  40.4 | 54.91
Modify  | 0.029365   | 4.9717     | 5.3051     |  57.2 | 27.41
Other   |            | 0.008315   |            |       |  0.05

Nlocal:    62.5 ave 65 max 57 min
Histogram: 1 0 0 2 0 2 2 1 6 2
Nghost:    1843.06 ave 1858 max 1830 min
Histogram: 1 3 1 4 1 0 2 2 1 1
Neighs:    0 ave 0 max 0 min
Histogram: 16 0 0 0 0 0 0 0 0 0
FullNghs:  18742.2 ave 19582 max 17213 min
Histogram: 1 0 1 1 1 3 1 1 5 2

Total # of neighbors = 299876
Ave neighs/atom = 299.876
Neighbor list builds = 1000
Dangerous builds not checked
Setting up Verlet run ...
  Unit style    : real
  Current step  : 20000
  Time step     : 1
Per MPI rank memory allocation (min/avg/max) = 4.577 | 4.578 | 4.58 Mbytes
Step Temp E_pair E_mol TotEng Press Volume Lx Ly Lz S/CPU 
   20000    307.71463   -10503.605            0   -9587.2832    8157.6585    787.77861    9.2356627    9.2356627    9.2356627            0 
   20100    293.13152   -10457.823            0   -9584.9275      14385.6    787.39265    9.2341541    9.2341541    9.2341541    54.381954 
   20200    301.41612   -10480.812            0   -9583.2458   -1158.4971     787.5641    9.2348243    9.2348243    9.2348243    46.594361 
   20300    300.74976   -10476.491            0   -9580.9099   -14975.306    788.02754    9.2366353    9.2366353    9.2366353    43.456264 
   20400    299.21868   -10468.707            0   -9577.6853   -1380.5274    788.22308    9.2373993    9.2373993    9.2373993    49.805685 
   20500    290.98369   -10439.789            0   -9573.2888    3977.1032    788.27036     9.237584     9.237584     9.237584    43.127728 
   20600    313.93303   -10503.402            0    -9568.563    2846.7078    788.13363    9.2370498    9.2370498    9.2370498    60.965495 
   20700    282.36904   -10399.819            0    -9558.972   -5219.4497    787.95069    9.2363351    9.2363351    9.2363351    56.431991 
   20800    305.74083   -10460.697            0   -9550.2532     5576.647    787.63923    9.2351179    9.2351179    9.2351179    45.860094 
   20900    304.24502   -10445.299            0   -9539.3097   -7622.4396    787.27467    9.2336929    9.2336929    9.2336929    56.465845 
   21000    301.26316   -10424.798            0   -9527.6875    9734.2212     786.8839    9.2321649    9.2321649    9.2321649    50.967894 
Loop time of 19.9386 on 16 procs for 1000 steps with 1000 atoms

Performance: 4.333 ns/day, 5.539 hours/ns, 50.154 timesteps/s
94.5% CPU use with 16 MPI tasks x no OpenMP threads

MPI task timing breakdown:
Section |  min time  |  avg time  |  max time  |%varavg| %total
---------------------------------------------------------------
Pair    | 1.4808     | 1.5777     | 1.9167     |   8.2 |  7.91
Neigh   | 0.61568    | 0.64651    | 0.74214    |   4.0 |  3.24
Comm    | 0.57892    | 1.0134     | 1.1393     |  13.3 |  5.08
Output  | 11.032     | 11.387     | 16.659     |  40.3 | 57.11
Modify  | 0.03251    | 5.3057     | 5.6611     |  59.1 | 26.61
Other   |            | 0.008411   |            |       |  0.04

Nlocal:    62.5 ave 68 max 58 min
Histogram: 1 1 1 4 1 2 4 0 0 2
Nghost:    1857.62 ave 1870 max 1845 min
Histogram: 2 0 2 2 3 1 1 1 2 2
Neighs:    0 ave 0 max 0 min
Histogram: 16 0 0 0 0 0 0 0 0 0
FullNghs:  18753.8 ave 20445 max 17441 min
Histogram: 2 1 4 1 1 3 2 0 1 1

Total # of neighbors = 300060
Ave neighs/atom = 300.06
Neighbor list builds = 1000
Dangerous builds not checked
Setting up Verlet run ...
  Unit style    : real
  Current step  : 21000
  Time step     : 1
Per MPI rank memory allocation (min/avg/max) = 4.577 | 4.578 | 4.58 Mbytes
Step Temp E_pair E_mol TotEng Press Volume Lx Ly Lz S/CPU 
   21000    301.26316   -10424.798            0   -9527.6875    9734.2212     786.8839    9.2321649    9.2321649    9.2321649            0 
   21100    291.30974   -10384.841            0   -9517.3708    10929.506    787.20054    9.2334031    9.2334031    9.2334031    58.721499 
   21200    308.23699   -10426.931            0   -9509.0535   -8658.1581    787.90418    9.2361533    9.2361533    9.2361533    50.190617 
   21300    304.86755   -10410.017            0    -9502.174    14342.655    788.63111     9.238993     9.238993     9.238993    56.868085 
   21400    301.16392   -10393.792            0   -9496.9768   -11865.424     789.5315    9.2425077    9.2425077    9.2425077    61.682242 
   21500     314.5824   -10431.277            0   -9494.5048   -6495.0815    789.97892    9.2442532    9.2442532    9.2442532    50.401184 
   21600    310.84282   -10421.746            0   -9496.1087   -349.06677    790.03049    9.2444544    9.2444544    9.2444544    55.562879 
   21700    306.65084   -10411.955            0    -9498.801   -20268.894    789.89628    9.2439309    9.2439309    9.2439309    55.713228 
   21800     319.8481   -10458.068            0   -9505.6147   -3105.4447    789.26762    9.2414779    9.2414779    9.2414779    47.171812 
   21900    302.67574   -10414.183            0    -9512.866   -5704.9949     788.3641    9.2379501    9.2379501    9.2379501    56.057292 
   22000     309.5521   -10447.347            0   -9525.5533   -8641.5507    787.03989    9.2327749    9.2327749    9.2327749    44.727023 
Loop time of 18.7934 on 16 procs for 1000 steps with 1000 atoms

Performance: 4.597 ns/day, 5.220 hours/ns, 53.210 timesteps/s
94.5% CPU use with 16 MPI tasks x no OpenMP threads

MPI task timing breakdown:
Section |  min time  |  avg time  |  max time  |%varavg| %total
---------------------------------------------------------------
Pair    | 1.4693     | 1.5767     | 1.7877     |   5.9 |  8.39
Neigh   | 0.61619    | 0.64482    | 0.69711    |   2.6 |  3.43
Comm    | 0.7537     | 1.0172     | 1.1526     |   9.3 |  5.41
Output  | 10.38      | 10.704     | 15.513     |  38.0 | 56.96
Modify  | 0.032972   | 4.8419     | 5.1671     |  56.4 | 25.76
Other   |            | 0.008397   |            |       |  0.04

Nlocal:    62.5 ave 69 max 57 min
Histogram: 1 2 1 1 3 5 1 0 0 2
Nghost:    1835.62 ave 1849 max 1819 min
Histogram: 2 0 1 2 1 2 2 2 2 2
Neighs:    0 ave 0 max 0 min
Histogram: 16 0 0 0 0 0 0 0 0 0
FullNghs:  18746.2 ave 20585 max 17081 min
Histogram: 1 1 2 1 3 5 0 1 0 2

Total # of neighbors = 299940
Ave neighs/atom = 299.94
Neighbor list builds = 1000
Dangerous builds not checked
Setting up Verlet run ...
  Unit style    : real
  Current step  : 22000
  Time step     : 1
Per MPI rank memory allocation (min/avg/max) = 4.577 | 4.578 | 4.58 Mbytes
Step Temp E_pair E_mol TotEng Press Volume Lx Ly Lz S/CPU 
   22000     309.5521   -10447.347            0   -9525.5533   -8641.5507    787.03989    9.2327749    9.2327749    9.2327749            0 
   22100    304.57723   -10446.801            0   -9539.8224   -1190.8039    785.23107    9.2256964    9.2256964    9.2256964    52.677374 
   22200    289.93092   -10416.417            0   -9553.0521   -14616.256    783.30124    9.2181323    9.2181323    9.2181323    57.530164 
   22300    298.75845   -10454.188            0   -9564.5365    22089.583    781.11037      9.20953      9.20953      9.20953    50.707589 
   22400    312.45043   -10503.556            0    -9573.132    11076.844    779.73922    9.2041381    9.2041381    9.2041381    53.833053 
   22500    305.39761   -10486.109            0    -9576.687    1446.9235    779.05381    9.2014404    9.2014404    9.2014404    36.095963 
   22600    300.74174   -10475.057            0   -9579.4995     16115.95    778.63406    9.1997876    9.1997876    9.1997876    44.550316 
   22700    297.05595   -10467.351            0   -9582.7692    4147.7868    778.77482    9.2003419    9.2003419    9.2003419    54.962191 
   22800    295.96498    -10466.83            0   -9585.4965    14355.877    779.45867    9.2030341    9.2030341    9.2030341    53.387373 
   22900    301.17445   -10485.501            0   -9588.6544   -3407.8982    780.35827    9.2065732    9.2065732    9.2065732    46.910553 
   23000    301.32494   -10488.043            0    -9590.749   -6056.3564     781.1493     9.209683     9.209683     9.209683    61.319055 
Loop time of 19.9364 on 16 procs for 1000 steps with 1000 atoms

Performance: 4.334 ns/day, 5.538 hours/ns, 50.160 timesteps/s
94.5% CPU use with 16 MPI tasks x no OpenMP threads

MPI task timing breakdown:
Section |  min time  |  avg time  |  max time  |%varavg| %total
---------------------------------------------------------------
Pair    | 1.4225     | 1.5916     | 1.8853     |   7.9 |  7.98
Neigh   | 0.59539    | 0.64551    | 0.72662    |   3.7 |  3.24
Comm    | 0.69715    | 1.0713     | 1.2901     |  12.3 |  5.37
Output  | 10.833     | 11.196     | 16.591     |  41.6 | 56.16
Modify  | 0.027589   | 5.4233     | 5.7867     |  59.8 | 27.20
Other   |            | 0.008363   |            |       |  0.04

Nlocal:    62.5 ave 70 max 59 min
Histogram: 4 2 1 4 4 0 0 0 0 1
Nghost:    1865.25 ave 1883 max 1847 min
Histogram: 3 0 2 2 0 2 1 3 2 1
Neighs:    0 ave 0 max 0 min
Histogram: 16 0 0 0 0 0 0 0 0 0
FullNghs:  18883 ave 21257 max 17922 min
Histogram: 4 2 2 5 2 0 0 0 0 1

Total # of neighbors = 302128
Ave neighs/atom = 302.128
Neighbor list builds = 1000
Dangerous builds not checked
Setting up Verlet run ...
  Unit style    : real
  Current step  : 23000
  Time step     : 1
Per MPI rank memory allocation (min/avg/max) = 4.577 | 4.578 | 4.58 Mbytes
Step Temp E_pair E_mol TotEng Press Volume Lx Ly Lz S/CPU 
   23000    301.32494   -10488.043            0    -9590.749   -6056.3564     781.1493     9.209683     9.209683     9.209683            0 
   23100    303.31278   -10495.237            0   -9592.0237    2485.9341    781.73132    9.2119698    9.2119698    9.2119698    53.148958 
   23200    308.78914   -10513.917            0   -9594.3961    1584.5439    782.15047    9.2136159    9.2136159    9.2136159    48.660119 
   23300    300.46029   -10489.347            0   -9594.6277    9203.9269    782.64726    9.2155662    9.2155662    9.2155662    65.948706 
   23400    301.09104   -10492.513            0   -9595.9155    1629.4525    783.53921    9.2190657    9.2190657    9.2190657    55.921991 
   23500    298.21663   -10484.631            0   -9596.5926    1049.9142    784.64833    9.2234136    9.2234136    9.2234136     34.46888 
   23600    299.84943    -10491.03            0   -9598.1298   -4471.9877    785.43099    9.2264793    9.2264793    9.2264793    59.923321 
   23700    299.56216   -10493.487            0   -9601.4418    7692.9085    785.86497    9.2281783    9.2281783    9.2281783    50.954239 
   23800    302.57682   -10506.962            0   -9605.9402     6112.599    786.48876    9.2306193    9.2306193    9.2306193    43.769902 
   23900    312.78312   -10543.428            0   -9612.0134   -11373.785    787.10325    9.2330227    9.2330227    9.2330227    48.163678 
   24000    300.47366   -10514.058            0   -9619.2992   -3388.3896    787.44896    9.2343742    9.2343742    9.2343742    62.461766 
Loop time of 19.7356 on 16 procs for 1000 steps with 1000 atoms

Performance: 4.378 ns/day, 5.482 hours/ns, 50.670 timesteps/s
94.5% CPU use with 16 MPI tasks x no OpenMP threads

MPI task timing breakdown:
Section |  min time  |  avg time  |  max time  |%varavg| %total
---------------------------------------------------------------
Pair    | 1.5304     | 1.6028     | 1.8509     |   5.9 |  8.12
Neigh   | 0.62367    | 0.65204    | 0.72041    |   2.7 |  3.30
Comm    | 0.69468    | 1.0114     | 1.1118     |   9.4 |  5.12
Output  | 11.494     | 11.806     | 16.426     |  34.7 | 59.82
Modify  | 0.03511    | 4.6549     | 4.9674     |  55.3 | 23.59
Other   |            | 0.008412   |            |       |  0.04

Nlocal:    62.5 ave 67 max 59 min
Histogram: 1 4 3 1 0 1 0 4 1 1
Nghost:    1851.12 ave 1877 max 1828 min
Histogram: 1 1 2 3 1 3 1 3 0 1
Neighs:    0 ave 0 max 0 min
Histogram: 16 0 0 0 0 0 0 0 0 0
FullNghs:  18726.9 ave 20051 max 17658 min
Histogram: 1 4 3 0 1 1 0 4 1 1

Total # of neighbors = 299630
Ave neighs/atom = 299.63
Neighbor list builds = 1000
Dangerous builds not checked
Setting up Verlet run ...
  Unit style    : real
  Current step  : 24000
  Time step     : 1
Per MPI rank memory allocation (min/avg/max) = 4.577 | 4.578 | 4.58 Mbytes
Step Temp E_pair E_mol TotEng Press Volume Lx Ly Lz S/CPU 
   24000    300.47366   -10514.058            0   -9619.2992   -3388.3896    787.44896    9.2343742    9.2343742    9.2343742            0 
   24100    287.81659   -10484.229            0   -9627.1604   -7812.4949    787.23652    9.2335438    9.2335438    9.2335438    49.719047 
   24200    289.19304   -10496.861            0   -9635.6931     559.1888    786.06721    9.2289699    9.2289699    9.2289699    44.866388 
   24300    285.29983    -10495.15            0   -9645.5763   -8822.7199    784.43885    9.2225927    9.2225927    9.2225927    44.378029 
   24400    303.39093   -10559.735            0   -9656.2881     1391.087     782.3608    9.2144417    9.2144417    9.2144417    39.093619 
   24500      295.854   -10547.007            0   -9666.0042    6343.1513    780.56377    9.2073813    9.2073813    9.2073813    60.744434 
   24600    288.48119   -10534.186            0   -9675.1384   -667.88809     779.0873    9.2015723    9.2015723    9.2015723    50.298413 
   24700    291.98418   -10551.876            0    -9682.397    15564.318    778.01471    9.1973476    9.1973476    9.1973476    41.666665 
   24800     289.7149   -10550.079            0    -9687.357    17304.563    777.77169    9.1963899    9.1963899    9.1963899    46.939281 
   24900    294.29804   -10566.659            0   -9690.2893    14576.303    778.38952    9.1988244    9.1988244    9.1988244    49.417712 
   25000    291.86937   -10559.412            0    -9690.275   -6762.7722    779.76987    9.2042587    9.2042587    9.2042587    47.273223 
Loop time of 21.3552 on 16 procs for 1000 steps with 1000 atoms

Performance: 4.046 ns/day, 5.932 hours/ns, 46.827 timesteps/s
94.4% CPU use with 16 MPI tasks x no OpenMP threads

MPI task timing breakdown:
Section |  min time  |  avg time  |  max time  |%varavg| %total
---------------------------------------------------------------
Pair    | 1.4701     | 1.562      | 1.8393     |   8.1 |  7.31
Neigh   | 0.6098     | 0.63727    | 0.71743    |   3.7 |  2.98
Comm    | 0.69077    | 1.0483     | 1.1566     |  12.6 |  4.91
Output  | 11.891     | 12.281     | 18.071     |  42.7 | 57.51
Modify  | 0.027522   | 5.8184     | 6.2085     |  62.0 | 27.25
Other   |            | 0.008388   |            |       |  0.04

Nlocal:    62.5 ave 71 max 55 min
Histogram: 2 0 2 4 0 3 2 1 1 1
Nghost:    1863.25 ave 1883 max 1847 min
Histogram: 2 1 3 3 0 2 2 1 1 1
Neighs:    0 ave 0 max 0 min
Histogram: 16 0 0 0 0 0 0 0 0 0
FullNghs:  18918.5 ave 21655 max 16482 min
Histogram: 2 0 2 2 3 2 1 3 0 1

Total # of neighbors = 302696
Ave neighs/atom = 302.696
Neighbor list builds = 1000
Dangerous builds not checked
Setting up Verlet run ...
  Unit style    : real
  Current step  : 25000
  Time step     : 1
Per MPI rank memory allocation (min/avg/max) = 4.577 | 4.578 | 4.58 Mbytes
Step Temp E_pair E_mol TotEng Press Volume Lx Ly Lz S/CPU 
   25000    291.86937   -10559.412            0    -9690.275   -6762.7722    779.76987    9.2042587    9.2042587    9.2042587            0 
   25100    299.93423   -10581.881            0   -9688.7278   -7174.4195    781.04506    9.2092734    9.2092734    9.2092734    38.654295 
   25200    294.14929   -10559.673            0   -9683.7462   -8074.2328    781.92191    9.2127183    9.2127183    9.2127183    38.113708 
   25300    293.07022    -10548.41            0   -9675.6973   -10542.431    782.17457    9.2137105    9.2137105    9.2137105    44.944218 
   25400    296.06022   -10548.318            0   -9666.7013   -3243.9336    781.54773    9.2112486    9.2112486    9.2112486    43.766682 
   25500    307.76414   -10571.681            0   -9655.2121    5412.8185     780.2583    9.2061801    9.2061801    9.2061801    55.836015 
   25600    307.01865   -10558.473            0   -9644.2235   -1177.6667    778.82017    9.2005205    9.2005205    9.2005205    43.879388 
   25700    294.06918     -10508.8            0    -9633.112    9277.0095    777.48138    9.1952456    9.1952456    9.1952456    58.157236 
   25800     291.6994   -10494.758            0   -9626.1273   -1929.1737    776.44885    9.1911732    9.1911732    9.1911732    42.317006 
   25900    290.91954   -10487.433            0   -9621.1243    16911.674    775.65983    9.1880588    9.1880588    9.1880588    45.134131 
   26000      303.711   -10524.193            0    -9619.794    7248.1512    775.75846    9.1884483    9.1884483    9.1884483    46.517732 
Loop time of 22.2385 on 16 procs for 1000 steps with 1000 atoms

Performance: 3.885 ns/day, 6.177 hours/ns, 44.967 timesteps/s
94.4% CPU use with 16 MPI tasks x no OpenMP threads

MPI task timing breakdown:
Section |  min time  |  avg time  |  max time  |%varavg| %total
---------------------------------------------------------------
Pair    | 1.4743     | 1.5816     | 1.8584     |   7.1 |  7.11
Neigh   | 0.6085     | 0.64197    | 0.7232     |   3.5 |  2.89
Comm    | 0.68891    | 1.0464     | 1.187      |  11.3 |  4.71
Output  | 13.392     | 13.741     | 18.925     |  36.1 | 61.79
Modify  | 0.034008   | 5.2189     | 5.5684     |  58.6 | 23.47
Other   |            | 0.008391   |            |       |  0.04

Nlocal:    62.5 ave 67 max 53 min
Histogram: 2 0 0 0 0 3 1 4 1 5
Nghost:    1876.75 ave 1892 max 1859 min
Histogram: 1 0 3 2 2 1 2 1 2 2
Neighs:    0 ave 0 max 0 min
Histogram: 16 0 0 0 0 0 0 0 0 0
FullNghs:  19024.2 ave 20348 max 16150 min
Histogram: 2 0 0 0 1 1 2 3 2 5

Total # of neighbors = 304388
Ave neighs/atom = 304.388
Neighbor list builds = 1000
Dangerous builds not checked
Setting up Verlet run ...
  Unit style    : real
  Current step  : 26000
  Time step     : 1
Per MPI rank memory allocation (min/avg/max) = 4.577 | 4.578 | 4.58 Mbytes
Step Temp E_pair E_mol TotEng Press Volume Lx Ly Lz S/CPU 
   26000      303.711   -10524.193            0    -9619.794    7248.1512    775.75846    9.1884483    9.1884483    9.1884483            0 
   26100    300.19648   -10512.434            0      -9618.5     27330.94    776.73901     9.192318     9.192318     9.192318    54.555036 
   26200    302.01593   -10517.477            0   -9618.1249    18990.164    778.49064    9.1992227    9.1992227    9.1992227    54.790733 
   26300    305.69992   -10526.804            0   -9616.4817    2517.5015    780.80372    9.2083247    9.2083247    9.2083247    36.898514 
   26400    301.83955   -10512.737            0   -9613.9104    6631.7293    783.03916    9.2171041    9.2171041    9.2171041    38.054449 
   26500    294.81843   -10487.112            0   -9609.1932   -6269.5058    785.16455    9.2254359    9.2254359    9.2254359    50.068075 
   26600    309.72849   -10530.171            0   -9607.8525    6113.0741    786.69904    9.2314419    9.2314419    9.2314419    46.814078 
   26700    292.68993   -10475.278            0   -9603.6971   -5754.1847    787.67899    9.2352733    9.2352733    9.2352733    51.277884 
   26800    296.68209   -10484.831            0   -9601.3623   -22775.894    788.25033    9.2375057    9.2375057    9.2375057     39.98688 
   26900    303.56646   -10501.557            0   -9597.5878    -15985.49    787.85704    9.2359691    9.2359691    9.2359691    56.912882 
   27000    313.84367   -10528.738            0   -9594.1651   -3210.4497    786.68032    9.2313687    9.2313687    9.2313687    41.828445 
Loop time of 21.7283 on 16 procs for 1000 steps with 1000 atoms

Performance: 3.976 ns/day, 6.036 hours/ns, 46.023 timesteps/s
94.4% CPU use with 16 MPI tasks x no OpenMP threads

MPI task timing breakdown:
Section |  min time  |  avg time  |  max time  |%varavg| %total
---------------------------------------------------------------
Pair    | 1.4587     | 1.5604     | 1.7626     |   6.0 |  7.18
Neigh   | 0.60755    | 0.63633    | 0.67648    |   2.3 |  2.93
Comm    | 0.82194    | 1.0641     | 1.1711     |   8.7 |  4.90
Output  | 12.579     | 12.949     | 18.432     |  39.3 | 59.59
Modify  | 0.026796   | 5.5106     | 5.8803     |  60.3 | 25.36
Other   |            | 0.008334   |            |       |  0.04

Nlocal:    62.5 ave 67 max 58 min
Histogram: 1 3 1 1 0 3 3 2 1 1
Nghost:    1861.94 ave 1894 max 1843 min
Histogram: 1 4 3 1 3 2 1 0 0 1
Neighs:    0 ave 0 max 0 min
Histogram: 16 0 0 0 0 0 0 0 0 0
FullNghs:  18771.5 ave 20174 max 17306 min
Histogram: 2 2 1 1 0 2 3 3 0 2

Total # of neighbors = 300344
Ave neighs/atom = 300.344
Neighbor list builds = 1000
Dangerous builds not checked
Setting up Verlet run ...
  Unit style    : real
  Current step  : 27000
  Time step     : 1
Per MPI rank memory allocation (min/avg/max) = 4.577 | 4.578 | 4.58 Mbytes
Step Temp E_pair E_mol TotEng Press Volume Lx Ly Lz S/CPU 
   27000    313.84367   -10528.738            0   -9594.1651   -3210.4497    786.68032    9.2313687    9.2313687    9.2313687            0 
   27100    295.47439   -10470.862            0   -9590.9896    2592.5974    785.19556    9.2255573    9.2255573    9.2255573    50.470567 
   27200    301.23151   -10483.979            0   -9586.9627   -9075.8156    783.36339    9.2183761    9.2183761    9.2183761    51.200091 
   27300    312.31215   -10513.554            0   -9583.5413   -9538.5626    781.41253    9.2107174    9.2107174    9.2107174    45.634808 
   27400    302.18378   -10479.857            0    -9580.005    13762.775    779.47294    9.2030902    9.2030902    9.2030902    38.715313 
   27500     308.0227   -10493.772            0   -9576.5333    13386.145    778.18181    9.1980061    9.1980061    9.1980061     45.77361 
   27600    300.80869   -10468.211            0   -9572.4537    7092.0907     777.8113    9.1965461    9.1965461    9.1965461    35.683114 
   27700    314.74069   -10505.514            0   -9568.2697    6539.9875    778.26414    9.1983304    9.1983304    9.1983304    43.218872 
   27800    310.81602   -10490.588            0    -9565.031    2608.8601    779.33318    9.2025402    9.2025402    9.2025402    51.272529 
   27900    294.64312   -10439.123            0   -9561.7259    3383.4403    780.75602    9.2081372    9.2081372    9.2081372    62.233392 
   28000    315.63932   -10499.875            0   -9559.9553    2053.3327    782.51651     9.215053     9.215053     9.215053    49.799959 
Loop time of 21.5749 on 16 procs for 1000 steps with 1000 atoms

Performance: 4.005 ns/day, 5.993 hours/ns, 46.350 timesteps/s
[...]
  207700    301.93008     -11463.2            0   -10564.104    12473.133    732.04495    9.0125132    9.0125132    9.0125132    44.956034 
  207800     294.9392   -11438.849            0   -10560.571    14471.143    734.14476    9.0211223    9.0211223    9.0211223    36.781258 
  207900    305.69652   -11468.151            0   -10557.839    2277.9495    736.82173    9.0320737    9.0320737    9.0320737    59.233325 
  208000    299.14489   -11446.577            0   -10555.774   -14410.533    739.22061    9.0418651    9.0418651    9.0418651    50.380284 
  208100    302.52558   -11455.433            0   -10554.563   -19929.724    740.78224    9.0482277    9.0482277    9.0482277    47.111057 
  208200    305.65576   -11464.537            0   -10554.346   -13834.102      741.315    9.0503963    9.0503963    9.0503963     53.30991 
  208300    304.12306    -11459.43            0   -10553.804   -25263.714    740.72916    9.0480116    9.0480116    9.0480116    42.434704 
  208400    314.47826   -11492.691            0   -10556.228   -11491.871     739.0232    9.0410601    9.0410601    9.0410601    32.734534 
  208500    308.76267   -11477.526            0   -10558.084   -1303.9615     736.6008    9.0311709    9.0311709    9.0311709    50.575637 
  208600     303.1224   -11462.045            0   -10559.399    8106.5023    734.11009    9.0209802    9.0209802    9.0209802    44.609974 
  208700    307.92066   -11482.036            0   -10565.101    9623.7555    732.33361    9.0136977    9.0136977    9.0136977    43.144587 
  208800    300.68529   -11466.514            0   -10571.125    16874.795     731.6179    9.0107604    9.0107604    9.0107604    60.992061 
  208900    290.91974   -11446.145            0   -10579.835    27818.734     732.1388    9.0128984    9.0128984    9.0128984    38.814043 
  209000     289.8615   -11455.419            0   -10592.261    13944.398    733.93852    9.0202774    9.0202774    9.0202774    52.371127 
  209100    304.20018   -11512.484            0   -10606.628   -458.40099    736.32346    9.0300373    9.0300373    9.0300373    46.583102 
  209200    290.44156    -11482.79            0   -10617.904    -9941.541    738.68546    9.0396826    9.0396826    9.0396826    43.547593 
  209300    293.91989   -11503.511            0   -10628.268   -14758.413    740.21064    9.0458998    9.0458998    9.0458998    50.913482 
  209400    289.29592   -11497.652            0   -10636.178   -25374.013    740.41106    9.0467162    9.0467162    9.0467162    36.875256 
  209500     295.8367   -11521.847            0   -10640.895   -7986.0306    739.19951     9.041779     9.041779     9.041779    46.684886 
  209600    288.08941   -11499.867            0   -10641.986   -5757.2776    736.90236    9.0324032    9.0324032    9.0324032    58.471678 
  209700    290.27841    -11504.67            0    -10640.27      7695.99    734.37281    9.0220562    9.0220562    9.0220562    44.781948 
  209800    288.04986   -11496.358            0   -10638.595    10270.224    732.38732    9.0139181    9.0139181    9.0139181    45.049974 
  209900    294.92593   -11512.229            0    -10633.99    30258.611    731.44869    9.0100657    9.0100657    9.0100657    47.672789 
  210000    300.76704   -11527.128            0   -10631.495    4031.3649    731.85948    9.0117521    9.0117521    9.0117521    41.312749 
  210100    282.86495   -11467.608            0   -10625.284    17768.532    733.20648    9.0172774    9.0172774    9.0172774    39.416602 
  210200    294.85519   -11497.834            0   -10619.806    10611.506     735.2566     9.025674     9.025674     9.025674    42.403835 
  210300    294.95206   -11493.089            0   -10614.772   -9447.3148    737.49043    9.0348053    9.0348053    9.0348053    57.097261 
  210400    291.99731    -11478.72            0   -10609.202   -9285.6485    739.37608    9.0424989    9.0424989    9.0424989    49.108544 
  210500    291.42798   -11472.041            0   -10604.218   -11122.094    740.38783    9.0466216    9.0466216    9.0466216    33.809042 
  210600    295.74174   -11480.358            0    -10599.69   -13757.559    740.42894     9.046789     9.046789     9.046789    45.350986 
  210700    294.81947   -11475.218            0   -10597.296   -19070.793    739.24674    9.0419716    9.0419716    9.0419716    30.815637 
  210800    308.45112   -11514.557            0   -10596.042   -3879.5855    737.32046    9.0341111    9.0341111    9.0341111    48.871715 
  210900    286.67004   -11445.869            0   -10592.215   -3592.4403    735.28256    9.0257802    9.0257802    9.0257802    49.306074 
  211000    301.28577   -11487.351            0   -10590.173     9210.406    733.52641    9.0185888    9.0185888    9.0185888    43.786272 
  211100    301.92785   -11486.949            0   -10587.859    13823.032    732.62368    9.0148876    9.0148876    9.0148876    55.708695 
  211200    295.72324   -11465.632            0   -10585.019    10625.436    732.88379    9.0159544    9.0159544    9.0159544    50.728073 
  211300     301.4502   -11480.534            0   -10582.867    14743.707    734.25718    9.0215827    9.0215827    9.0215827    50.022398 
  211400    292.54753   -11450.635            0   -10579.478   -10711.022    736.37111    9.0302321    9.0302321    9.0302321    54.317695 
  211500    307.28518   -11492.005            0   -10576.963   -3439.8957      738.657    9.0395666    9.0395666    9.0395666    54.632454 
  211600    285.71593   -11422.196            0   -10571.383   -11556.665    740.39005    9.0466306    9.0466306    9.0466306    41.673038 
  211700    297.64077   -11453.802            0   -10567.479    -23373.03    741.11552    9.0495844    9.0495844    9.0495844    48.699067 
  211800    303.63219    -11466.62            0   -10562.455   -9585.0095    740.55458    9.0473007    9.0473007    9.0473007    49.939517 
  211900    306.59356   -11469.774            0   -10556.791    -11798.14    738.93035    9.0406815    9.0406815    9.0406815      39.4263 
  212000    300.67263   -11446.076            0   -10550.725   -8471.5179    736.76386    9.0318373    9.0318373    9.0318373    50.166609 
  212100    305.69711   -11456.338            0   -10546.024    4355.1649    734.53322    9.0227131    9.0227131    9.0227131    53.692159 
  212200    314.65925   -11479.933            0   -10542.931    12378.593     732.8174    9.0156821    9.0156821    9.0156821    36.191469 
  212300    313.84301   -11474.044            0   -10539.473     30378.98    732.22229     9.013241     9.013241     9.013241    39.950418 
  212400    310.25288   -11461.381            0   -10537.501    7619.6379    732.76149    9.0154528    9.0154528    9.0154528    57.214466 
  212500    308.37639   -11458.028            0   -10539.735    4205.2624    734.16691     9.021213     9.021213     9.021213    49.944688 
  212600    306.81014   -11457.102            0   -10543.474    11531.284    736.19193    9.0294996    9.0294996    9.0294996    55.200187 
  212700    314.48227   -11488.309            0   -10551.834   -9765.6086    738.15669    9.0375252    9.0375252    9.0375252    53.051734 
  212800    304.50954   -11469.166            0   -10562.389   -12844.978    739.44461    9.0427783    9.0427783    9.0427783    39.779266 
  212900     304.4101   -11481.232            0   -10574.751   -15226.942     739.9142    9.0446921    9.0446921    9.0446921    50.780123 
  213000    297.97485   -11475.804            0   -10588.486    -11677.44    739.21945    9.0418603    9.0418603    9.0418603    42.665823 
  213100    296.02529    -11482.57            0   -10601.057   -7757.7519    737.64394    9.0354321    9.0354321    9.0354321    36.456788 
  213200    292.13444   -11481.236            0   -10611.309   -824.39304    735.61375    9.0271352    9.0271352    9.0271352    37.739826 
  213300    301.64919   -11518.422            0   -10620.162    10185.159    733.77436    9.0196048    9.0196048    9.0196048    42.820026 
  213400    302.35092     -11525.4            0   -10625.051    10955.853    732.52067    9.0144651    9.0144651    9.0144651    54.698682 
  213500    295.67582   -11509.043            0   -10628.571    8353.9128       732.05     9.012534     9.012534     9.012534    42.389782 
  213600    302.62384   -11533.987            0   -10632.825    11618.798    732.43853    9.0141281    9.0141281    9.0141281    55.613318 
  213700    284.35857    -11480.65            0   -10633.879    817.92434    733.44196    9.0182427    9.0182427    9.0182427    44.479627 
  213800    296.56667   -11518.834            0   -10635.709   -2001.1511    734.82394    9.0239033    9.0239033    9.0239033    32.467782 
  213900    291.24981   -11502.191            0   -10634.899    4264.7796     736.2517     9.029744     9.029744     9.029744    52.600026 
  214000    299.80931   -11526.572            0   -10633.791   -17509.736    737.43227    9.0345678    9.0345678    9.0345678    44.251474 
  214100    290.73446   -11495.208            0   -10629.451   -17105.964     737.7549    9.0358851    9.0358851    9.0358851    48.988159 
  214200    296.31771   -11507.011            0   -10624.627   -3789.1892    737.39502    9.0344157    9.0344157    9.0344157    45.235739 
  214300    308.01256   -11535.937            0   -10618.728   -7410.5664      736.663    9.0314251    9.0314251    9.0314251    37.515441 
  214400     297.7712    -11495.72            0   -10609.008   -11373.187    735.70284    9.0274996    9.0274996    9.0274996    55.062791 
  214500    303.52175   -11502.349            0   -10598.513   -5044.6688     734.7019    9.0234037    9.0234037    9.0234037    49.002093 
  214600    310.34961    -11512.59            0   -10588.422    8459.1238     733.9331    9.0202552    9.0202552    9.0202552    40.963539 
  214700     310.0086   -11499.962            0    -10576.81     1179.699    733.80345     9.019724     9.019724     9.019724     61.61318 
  214800    298.39112   -11455.593            0   -10567.035    10714.453    734.25843    9.0215878    9.0215878    9.0215878    49.517562 
  214900    308.01829   -11475.826            0     -10558.6    434.17705    735.32188    9.0259411    9.0259411    9.0259411    36.668106 
  215000    308.83791   -11472.858            0   -10553.192    1121.8549    736.50806    9.0307919    9.0307919    9.0307919    50.759674 
  215100    306.86711   -11462.109            0   -10548.311   -2353.2921    737.38194    9.0343622    9.0343622    9.0343622    43.803922 
  215200    303.68642    -11451.45            0   -10547.124   -14620.584    737.81196    9.0361181    9.0361181    9.0361181    54.297996 
  215300    312.86502   -11478.544            0   -10546.885   -89.597451    737.86285    9.0363258    9.0363258    9.0363258    46.814999 
  215400     304.2416   -11452.197            0   -10546.217   -8884.6768    737.71805    9.0357347    9.0357347    9.0357347    36.586575 
  215500    304.51738   -11455.422            0   -10548.621   -3652.3105    737.37312    9.0343262    9.0343262    9.0343262    51.371922 
  215600     305.7397   -11461.985            0   -10551.544    327.59878    736.95152    9.0326041    9.0326041    9.0326041    46.729681 
  215700    311.79249   -11483.449            0   -10554.984   -6755.4407    736.68719     9.031524     9.031524     9.031524    50.231661 
  215800    307.09548   -11473.106            0   -10558.628    -1418.779    736.40448    9.0303685    9.0303685    9.0303685    45.862563 
  215900    299.08013   -11451.737            0   -10561.128    7239.0133    736.07904    9.0290381    9.0290381    9.0290381    45.926999 
  216000     305.4095   -11472.549            0   -10563.092    2979.4404    735.92029    9.0283889    9.0283889    9.0283889    38.242055 
  216100    312.10865   -11494.209            0   -10564.803   -4594.1094    736.00333    9.0287285    9.0287285    9.0287285    45.990817 
  216200    297.64448   -11450.395            0   -10564.061   -7885.7586    736.25661    9.0297641    9.0297641    9.0297641    55.358937 
  216300    297.29848   -11450.471            0   -10565.167    7811.3542    736.46556    9.0306182    9.0306182    9.0306182    51.175808 
  216400    312.52841   -11498.464            0   -10567.808    5592.1733    736.61593    9.0312328    9.0312328    9.0312328     49.75102 
  216500      307.589   -11483.789            0   -10567.841   -1198.2965     736.7048    9.0315959    9.0315959    9.0315959    59.111281 
  216600    310.24914    -11493.52            0   -10569.651   -9380.2896    736.72243     9.031668     9.031668     9.031668    47.136462 
  216700    298.02833     -11458.8            0   -10571.322   -1036.9984     736.6906    9.0315379    9.0315379    9.0315379    44.449806 
  216800    308.75463   -11494.831            0   -10575.413    4801.4446    736.56374    9.0310195    9.0310195    9.0310195    46.693788 
  216900    300.03386   -11471.986            0   -10578.537    423.29103    736.41544    9.0304133    9.0304133    9.0304133    51.060613 
  217000    306.57908   -11496.889            0   -10583.949    3407.6266    736.35536    9.0301677    9.0301677    9.0301677    60.703811 
  217100    304.11661   -11494.031            0   -10588.423    1539.7898    736.35954    9.0301848    9.0301848    9.0301848     57.88818 
  217200    299.26603   -11485.692            0   -10594.529   -3525.1333    736.31885    9.0300185    9.0300185    9.0300185    42.557996 
  217300    295.50415   -11479.893            0   -10599.932    -3389.935    736.04219    9.0288874    9.0288874    9.0288874    46.850731 
  217400    298.11142   -11494.226            0   -10606.501   -7843.0307    735.57509     9.026977     9.026977     9.026977    54.798775 
  217500     301.7249   -11511.287            0   -10612.802   -1510.4859    734.96796    9.0244928    9.0244928    9.0244928    36.853405 
  217600    298.09968   -11506.248            0   -10618.558   -3118.3862    734.47084    9.0224576    9.0224576    9.0224576    45.180215 
  217700    293.14419   -11497.981            0   -10625.048   -265.92499    734.24829    9.0215463    9.0215463    9.0215463    42.524644 
  217800    295.66081   -11512.261            0   -10631.834    3606.4759    734.33875    9.0219168    9.0219168    9.0219168    51.556932 
  217900    294.05063    -11512.98            0   -10637.348    1217.2941    734.76295    9.0236536    9.0236536    9.0236536    60.085251 
  218000    294.85431   -11521.486            0    -10643.46    3834.9501    735.32781    9.0259654    9.0259654    9.0259654    49.248418 
  218100    289.20601   -11508.489            0   -10647.283   -9581.5026     735.8061    9.0279219    9.0279219    9.0279219    43.793102 
  218200    290.71917   -11516.992            0    -10651.28   -7992.8679    735.88515    9.0282452    9.0282452    9.0282452    44.704511 
  218300    293.26983   -11527.157            0   -10653.849   -493.27794    735.55718    9.0269038    9.0269038    9.0269038    43.179781 
  218400    285.50938   -11503.515            0   -10653.317   -1728.1648    734.83269    9.0239391    9.0239391    9.0239391    57.635317 
  218500     297.8236   -11536.988            0   -10650.121   -2168.7275    734.07453    9.0208346    9.0208346    9.0208346    52.585981 
  218600    283.50466   -11486.592            0   -10642.363     828.5134    733.58954    9.0188475    9.0188475    9.0188475    48.096315 
  218700    295.74534   -11513.057            0   -10632.378    6090.8981    733.46359    9.0183313    9.0183313    9.0183313    45.950037 
  218800    297.95526   -11504.474            0   -10617.214    12214.483    733.58302    9.0188208    9.0188208    9.0188208    54.480409 
  218900    299.52353   -11494.011            0   -10602.081    7295.4882    734.00718    9.0205587    9.0205587    9.0205587    33.683304 
  219000    301.30284   -11486.351            0   -10589.122    11829.252    734.83774    9.0239598    9.0239598    9.0239598    59.053324 
  219100    307.57131   -11496.162            0   -10580.267   -4181.8959    736.12196    9.0292136    9.0292136    9.0292136    46.713714 
  219200    303.89793     -11478.2            0   -10573.244   -11794.323     737.3173    9.0340982    9.0340982    9.0340982    42.929328 
  219300     306.4778   -11479.892            0   -10567.253   -9013.8746    738.12829    9.0374093    9.0374093    9.0374093    43.172622 
  219400    307.89255   -11480.944            0   -10564.093   -7110.9223    738.33581    9.0382561    9.0382561    9.0382561    52.238706 
  219500    301.91509   -11459.924            0   -10560.873    2165.9646    737.99235    9.0368544    9.0368544    9.0368544    39.875264 
  219600    313.26366   -11493.451            0   -10560.606   -8315.0753    737.39705    9.0344239    9.0344239    9.0344239     41.71753 
  219700    308.63177   -11479.103            0    -10560.05    1280.4573    736.73424    9.0317163    9.0317163    9.0317163    47.668284 
  219800    295.43298   -11440.055            0   -10560.306    2175.9016    736.22167    9.0296212    9.0296212    9.0296212    52.632988 
  219900    309.08901   -11484.515            0     -10564.1    5630.3638    735.78872    9.0278508    9.0278508    9.0278508    51.607257 
  220000    303.21182   -11468.182            0   -10565.269    10927.836    735.60519    9.0271002    9.0271002    9.0271002    38.081916 
  220100    309.67312   -11493.443            0   -10571.289    4257.4174    735.55487    9.0268943    9.0268943    9.0268943    53.158901 
  220200    301.70029   -11474.404            0   -10575.992    8161.0273    735.71447    9.0275472    9.0275472    9.0275472    52.706507 
  220300      298.613   -11473.644            0   -10584.426   -1961.5106    736.22606    9.0296392    9.0296392    9.0296392    50.991895 
  220400    304.05376   -11500.085            0   -10594.665   -743.95968    736.82925    9.0321045    9.0321045    9.0321045      55.9247 
  220500    307.11338   -11519.018            0   -10604.487   -6179.8366     737.3819    9.0343621    9.0343621    9.0343621    43.163773 
  220600    294.37263   -11489.424            0   -10612.833   -3789.7565    737.65219    9.0354658    9.0354658    9.0354658    37.189032 
  220700    300.70901   -11518.553            0   -10623.093    -474.8892    737.45827    9.0346739    9.0346739    9.0346739    45.577592 
  220800    291.36128   -11497.788            0   -10630.164   -9348.8856    736.74414    9.0317567    9.0317567    9.0317567     47.26518 
  220900    284.00736   -11481.804            0   -10636.079    4668.3429    735.86331    9.0281559    9.0281559    9.0281559    52.614215 
  221000    283.53322   -11484.741            0   -10640.428   -800.98888    735.03937     9.024785     9.024785     9.024785    55.843829 
Loop time of 2130.26 on 16 procs for 100000 steps with 1000 atoms

Performance: 4.056 ns/day, 5.917 hours/ns, 46.943 timesteps/s
94.4% CPU use with 16 MPI tasks x no OpenMP threads

MPI task timing breakdown:
Section |  min time  |  avg time  |  max time  |%varavg| %total
---------------------------------------------------------------
Pair    | 153.36     | 158.82     | 178.62     |  44.9 |  7.46
Neigh   | 65.418     | 67.367     | 73.765     |  28.5 |  3.16
Comm    | 69.312     | 95.495     | 102.81     |  78.2 |  4.48
Output  | 1222       | 1258.7     | 1804.3     | 397.0 | 59.09
Modify  | 3.3512     | 548.96     | 585.71     | 601.3 | 25.77
Other   |            | 0.869      |            |       |  0.04

Nlocal:    62.5 ave 65 max 60 min
Histogram: 2 0 1 0 6 0 3 0 2 2
Nghost:    1951.69 ave 1967 max 1929 min
Histogram: 1 1 0 0 1 4 5 0 2 2
Neighs:    0 ave 0 max 0 min
Histogram: 16 0 0 0 0 0 0 0 0 0
FullNghs:  20033.9 ave 20882 max 19211 min
Histogram: 2 0 1 4 2 3 0 1 1 2

Total # of neighbors = 320542
Ave neighs/atom = 320.542
Neighbor list builds = 100000
Dangerous builds not checked
Total wall time: 1:17:43
