LAMMPS (16 Mar 2018)
Reading data file ...
  orthogonal box = (-4.73087 -4.73087 -4.73087) to (4.73087 4.73087 4.73087)
  2 by 2 by 4 MPI processor grid
  reading atoms ...
  1000 atoms
Reading potential file /home/fs01/ajm529/lammps-16Mar18/potentials/sw_potentials/AG/eps2.23.sw with DATE: 2008-01-29
Neighbor list info ...
  update every 1 steps, delay 0 steps, check no
  max neighbors/atom: 2000, page size: 100000
  master list distance cutoff = 3.836
  ghost atom cutoff = 3.836
  binsize = 1.918, bins = 5 5 5
  1 neighbor lists, perpetual/occasional/extra = 1 0 0
  (1) pair sw, perpetual
      attributes: full, newton on
      pair build: full/bin/atomonly
      stencil: full/bin/3d
      bin: standard
Setting up Verlet run ...
  Unit style    : real
  Current step  : 0
  Time step     : 1
Per MPI rank memory allocation (min/avg/max) = 3.517 | 3.585 | 4.576 Mbytes
Step Temp E_pair E_mol TotEng Press Volume Lx Ly Lz S/CPU 
       0          300   -10091.163            0    -9197.814   -29920.736    847.05629    9.4617345    9.4617345    9.4617345            0 
     100    330.45839    -10187.95            0    -9203.901   -45282.003    845.19005    9.4547807    9.4547807    9.4547807    35.602673 
     200    342.72788    -10239.06            0   -9218.4745   -34856.699    839.99223    9.4353589    9.4353589    9.4353589    40.764902 
     300    338.22709   -10248.847            0    -9241.664   -42270.546    832.01596    9.4053989    9.4053989    9.4053989    36.859533 
     400    318.83567   -10215.516            0   -9266.0776   -18962.524    821.75944    9.3665912    9.3665912    9.3665912     42.37232 
     500    344.90384   -10313.759            0    -9286.694   -10771.142    811.08485    9.3258572    9.3258572    9.3258572    33.832741 
     600    334.34566   -10298.971            0   -9303.3465    3019.0052    801.37721    9.2885016    9.2885016    9.2885016     35.02637 
     700     327.5194   -10295.242            0   -9319.9453     10131.82    793.58842    9.2583112    9.2583112    9.2583112    35.685347 
     800    324.47946   -10304.127            0    -9337.883    14677.844    788.03918    9.2366808    9.2366808    9.2366808     41.65943 
     900    326.60342   -10331.152            0   -9358.5831    14910.386    784.56731    9.2230961    9.2230961    9.2230961     39.88304 
    1000    312.58228   -10309.458            0   -9378.6411    13278.853    782.78143    9.2160928    9.2160928    9.2160928    35.818062 
Loop time of 26.6475 on 16 procs for 1000 steps with 1000 atoms

Performance: 3.242 ns/day, 7.402 hours/ns, 37.527 timesteps/s
94.4% CPU use with 16 MPI tasks x no OpenMP threads

MPI task timing breakdown:
Section |  min time  |  avg time  |  max time  |%varavg| %total
---------------------------------------------------------------
Pair    | 2.2322     | 2.4032     | 2.6722     |   8.4 |  9.02
Neigh   | 0.76949    | 0.83546    | 0.91096    |   4.7 |  3.14
Comm    | 0.56271    | 0.907      | 1.1437     |  18.1 |  3.40
Output  | 15.94      | 16.344     | 22.352     |  38.4 | 61.33
Modify  | 0.14988    | 6.1496     | 6.5561     |  62.5 | 23.08
Other   |            | 0.008523   |            |       |  0.03

Nlocal:    62.5 ave 68 max 56 min
Histogram: 1 0 0 2 2 5 4 0 1 1
Nghost:    1853.94 ave 1863 max 1847 min
Histogram: 1 3 2 4 0 1 1 2 1 1
Neighs:    0 ave 0 max 0 min
Histogram: 16 0 0 0 0 0 0 0 0 0
FullNghs:  18859.6 ave 20563 max 16723 min
Histogram: 1 0 0 2 2 5 1 4 0 1

Total # of neighbors = 301754
Ave neighs/atom = 301.754
Neighbor list builds = 1000
Dangerous builds not checked
Setting up Verlet run ...
  Unit style    : real
  Current step  : 1000
  Time step     : 1
Per MPI rank memory allocation (min/avg/max) = 3.77 | 4.528 | 4.579 Mbytes
Step Temp E_pair E_mol TotEng Press Volume Lx Ly Lz S/CPU 
    1000    312.58228   -10309.458            0   -9378.6411    13278.853    782.78143    9.2160928    9.2160928    9.2160928            0 
    1100    318.39188   -10347.711            0   -9399.5942    16001.889    782.02339    9.2131169    9.2131169    9.2131169    45.173858 
    1200    329.53163   -10402.102            0   -9420.8126    20121.404    782.44663    9.2147787    9.2147787    9.2147787    30.955192 
    1300    314.51353   -10377.003            0   -9440.4349    12295.339     784.2351    9.2217942    9.2217942    9.2217942    40.762139 
    1400    322.90738   -10422.607            0   -9461.0438    5405.4743    786.88541    9.2321708    9.2321708    9.2321708    36.153204 
    1500    315.31505   -10418.883            0    -9479.929   -388.24859    789.79034    9.2435176    9.2435176    9.2435176    40.257533 
    1600    315.07218   -10436.242            0   -9498.0111   -19288.658    792.21443    9.2529649    9.2529649    9.2529649    34.909244 
    1700    309.12591   -10435.444            0     -9514.92   -3005.0447    793.75857    9.2589728    9.2589728    9.2589728    39.830102 
    1800    318.06097   -10478.311            0   -9531.1802   -10947.143    794.55496    9.2620683    9.2620683    9.2620683    37.512768 
    1900    299.61472   -10437.556            0   -9545.3542   -8334.6668     794.5029    9.2618661    9.2618661    9.2618661    35.017006 
    2000    299.92805   -10453.255            0   -9560.1208   -14846.443    793.96308    9.2597679    9.2597679    9.2597679     42.23434 
Loop time of 26.412 on 16 procs for 1000 steps with 1000 atoms

Performance: 3.271 ns/day, 7.337 hours/ns, 37.862 timesteps/s
94.4% CPU use with 16 MPI tasks x no OpenMP threads

MPI task timing breakdown:
Section |  min time  |  avg time  |  max time  |%varavg| %total
---------------------------------------------------------------
Pair    | 2.2492     | 2.5143     | 2.8137     |  10.9 |  9.52
Neigh   | 0.76305    | 0.83527    | 0.90899    |   5.3 |  3.16
Comm    | 0.4969     | 0.86992    | 1.2076     |  23.7 |  3.29
Output  | 15.494     | 15.91      | 22.089     |  40.0 | 60.24
Modify  | 0.093836   | 6.2743     | 6.6898     |  63.7 | 23.76
Other   |            | 0.008474   |            |       |  0.03

Nlocal:    62.5 ave 68 max 57 min
Histogram: 3 1 1 2 1 1 1 2 2 2
Nghost:    1833.81 ave 1865 max 1801 min
Histogram: 3 1 2 2 0 0 0 2 4 2
Neighs:    0 ave 0 max 0 min
Histogram: 16 0 0 0 0 0 0 0 0 0
FullNghs:  18590.8 ave 20128 max 16603 min
Histogram: 1 2 1 1 2 2 0 1 2 4

Total # of neighbors = 297452
Ave neighs/atom = 297.452
Neighbor list builds = 1000
Dangerous builds not checked
Setting up Verlet run ...
  Unit style    : real
  Current step  : 2000
  Time step     : 1
Per MPI rank memory allocation (min/avg/max) = 4.576 | 4.578 | 4.58 Mbytes
Step Temp E_pair E_mol TotEng Press Volume Lx Ly Lz S/CPU 
    2000    299.92805   -10453.255            0   -9560.1208   -14846.443    793.96308    9.2597679    9.2597679    9.2597679            0 
    2100    298.45277   -10462.077            0   -9573.3355   -18318.123    792.71278    9.2549047    9.2549047    9.2549047    35.721908 
    2200    302.80573   -10486.976            0   -9585.2725   -22209.651    790.43998    9.2460513    9.2460513    9.2460513    40.175832 
    2300    310.06692   -10518.665            0   -9595.3384    -7783.984    787.17123    9.2332885    9.2332885    9.2332885    31.419501 
    2400    299.73471   -10497.285            0   -9604.7258      3456.89    783.46621    9.2187794    9.2187794    9.2187794    32.637332 
    2500    299.76729   -10504.876            0   -9612.2201    16197.795    779.68787     9.203936     9.203936     9.203936     33.30768 
    2600    311.25109    -10547.33            0   -9620.4776    15443.065    776.54598    9.1915565    9.1915565    9.1915565    43.708713 
    2700    294.90601   -10505.219            0   -9627.0395    12974.523    774.75417    9.1844814    9.1844814    9.1844814    45.276772 
    2800    294.05614   -10510.078            0   -9634.4287    28958.277    774.23535    9.1824308    9.1824308    9.1824308    31.682063 
    2900    294.24546   -10519.018            0   -9642.8055    20796.038    775.42762    9.1871418    9.1871418    9.1871418      36.0995 
    3000    288.00998   -10508.648            0   -9651.0035    14085.968    777.96717    9.1971603    9.1971603    9.1971603      33.3959 
Loop time of 27.9549 on 16 procs for 1000 steps with 1000 atoms

Performance: 3.091 ns/day, 7.765 hours/ns, 35.772 timesteps/s
94.4% CPU use with 16 MPI tasks x no OpenMP threads

MPI task timing breakdown:
Section |  min time  |  avg time  |  max time  |%varavg| %total
---------------------------------------------------------------
Pair    | 2.3759     | 2.5976     | 2.8704     |   9.2 |  9.29
Neigh   | 0.77877    | 0.85218    | 0.92624    |   4.8 |  3.05
Comm    | 0.56928    | 0.91545    | 1.2122     |  20.0 |  3.27
Output  | 16.836     | 17.257     | 23.435     |  38.4 | 61.73
Modify  | 0.1448     | 6.3242     | 6.7468     |  63.4 | 22.62
Other   |            | 0.008583   |            |       |  0.03

Nlocal:    62.5 ave 68 max 56 min
Histogram: 1 0 1 0 3 5 4 1 0 1
Nghost:    1863.31 ave 1879 max 1851 min
Histogram: 2 1 2 4 2 1 1 0 1 2
Neighs:    0 ave 0 max 0 min
Histogram: 16 0 0 0 0 0 0 0 0 0
FullNghs:  18983 ave 20667 max 17000 min
Histogram: 1 0 1 1 2 4 5 1 0 1

Total # of neighbors = 303728
Ave neighs/atom = 303.728
Neighbor list builds = 1000
Dangerous builds not checked
Setting up Verlet run ...
  Unit style    : real
  Current step  : 3000
  Time step     : 1
Per MPI rank memory allocation (min/avg/max) = 4.577 | 4.578 | 4.58 Mbytes
Step Temp E_pair E_mol TotEng Press Volume Lx Ly Lz S/CPU 
    3000    288.00998   -10508.648            0   -9651.0035    14085.968    777.96717    9.1971603    9.1971603    9.1971603            0 
    3100    288.74403   -10518.392            0   -9658.5617   -2997.7742    781.37477     9.210569     9.210569     9.210569    41.784927 
    3200    298.62269   -10554.854            0   -9665.6069   -5681.0303    784.51985    9.2229102    9.2229102    9.2229102    34.153025 
    3300    303.90512   -10574.606            0   -9669.6286    -12001.59    787.22085    9.2334825    9.2334825    9.2334825    40.459774 
    3400    278.18369   -10499.116            0   -9670.7324   -29440.885    788.96286    9.2402883    9.2402883    9.2402883    37.794098 
    3500    296.19735   -10554.389            0   -9672.3635   -26604.989    789.04327    9.2406022    9.2406022    9.2406022    42.320185 
    3600    286.08597   -10521.971            0   -9670.0557   -10546.719    787.76252    9.2355998    9.2355998    9.2355998    31.009979 
    3700    285.60066   -10515.985            0   -9665.5152   -14956.439    785.52557    9.2268496    9.2268496    9.2268496    38.631847 
    3800    296.25242   -10540.356            0   -9658.1667    7089.9564    782.81328    9.2162178    9.2162178    9.2162178    31.762519 
    3900    301.11246   -10545.284            0   -9648.6223    14746.201    780.50914    9.2071665    9.2071665    9.2071665    38.661095 
    4000    290.40839   -10500.927            0   -9636.1401    18205.887    778.94896    9.2010276    9.2010276    9.2010276    37.632885 
Loop time of 27.0072 on 16 procs for 1000 steps with 1000 atoms

Performance: 3.199 ns/day, 7.502 hours/ns, 37.027 timesteps/s
94.4% CPU use with 16 MPI tasks x no OpenMP threads

MPI task timing breakdown:
Section |  min time  |  avg time  |  max time  |%varavg| %total
---------------------------------------------------------------
Pair    | 2.4016     | 2.5731     | 2.8007     |   8.0 |  9.53
Neigh   | 0.78313    | 0.85122    | 0.92271    |   4.4 |  3.15
Comm    | 0.61454    | 0.91281    | 1.1544     |  17.5 |  3.38
Output  | 16.044     | 16.462     | 22.493     |  38.4 | 60.95
Modify  | 0.18118    | 6.1993     | 6.6164     |  62.4 | 22.95
Other   |            | 0.008583   |            |       |  0.03

Nlocal:    62.5 ave 68 max 58 min
Histogram: 2 0 1 5 2 0 1 1 3 1
Nghost:    1864.69 ave 1887 max 1852 min
Histogram: 4 2 0 2 2 4 0 1 0 1
Neighs:    0 ave 0 max 0 min
Histogram: 16 0 0 0 0 0 0 0 0 0
FullNghs:  18970.8 ave 20880 max 17384 min
Histogram: 2 0 2 5 1 1 0 4 0 1

Total # of neighbors = 303532
Ave neighs/atom = 303.532
Neighbor list builds = 1000
Dangerous builds not checked
Setting up Verlet run ...
  Unit style    : real
  Current step  : 4000
  Time step     : 1
Per MPI rank memory allocation (min/avg/max) = 4.577 | 4.578 | 4.58 Mbytes
Step Temp E_pair E_mol TotEng Press Volume Lx Ly Lz S/CPU 
    4000    290.40839   -10500.927            0   -9636.1401    18205.887    778.94896    9.2010276    9.2010276    9.2010276            0 
    4100    297.56517   -10509.972            0   -9623.8738    21572.629     778.4469    9.1990504    9.1990504    9.1990504    34.408683 
    4200    310.32789   -10537.713            0   -9613.6096     10089.45    779.26753    9.2022818    9.2022818    9.2022818    41.021792 
    4300    301.71611   -10502.561            0   -9604.1018   -2685.2011    780.75953     9.208151     9.208151     9.208151     35.47466 
    4400    299.02083   -10488.151            0    -9597.718    9518.0014     782.5214    9.2150722    9.2150722    9.2150722    32.733151 
    4500    302.47738   -10491.135            0   -9590.4095   -13851.502    784.43984    9.2225966    9.2225966    9.2225966    35.643614 
    4600    296.20796   -10466.027            0     -9583.97   -22624.682    785.60106    9.2271452    9.2271452    9.2271452     33.72794 
    4700    300.95718   -10474.998            0   -9578.7987   -14662.071     785.7447    9.2277075    9.2277075    9.2277075    33.073702 
    4800    312.87032   -10506.222            0   -9574.5477    3947.4971    784.99959    9.2247898    9.2247898    9.2247898    33.048559 
    4900    290.58271   -10435.108            0   -9569.8027   -9878.8618    783.92928    9.2205953    9.2205953    9.2205953    38.181344 
    5000    305.26602   -10476.678            0   -9567.6481   -6610.8016    782.79698    9.2161538    9.2161538    9.2161538    37.005096 
Loop time of 28.3592 on 16 procs for 1000 steps with 1000 atoms

Performance: 3.047 ns/day, 7.878 hours/ns, 35.262 timesteps/s
94.4% CPU use with 16 MPI tasks x no OpenMP threads

MPI task timing breakdown:
Section |  min time  |  avg time  |  max time  |%varavg| %total
---------------------------------------------------------------
Pair    | 2.3806     | 2.5855     | 2.8906     |   9.5 |  9.12
Neigh   | 0.77777    | 0.84891    | 0.92746    |   4.8 |  2.99
Comm    | 0.52883    | 0.91232    | 1.1894     |  20.4 |  3.22
Output  | 16.978     | 17.413     | 23.867     |  39.9 | 61.40
Modify  | 0.14612    | 6.5909     | 7.0262     |  64.8 | 23.24
Other   |            | 0.008556   |            |       |  0.03

Nlocal:    62.5 ave 67 max 57 min
Histogram: 1 0 1 1 2 4 2 1 2 2
Nghost:    1850.31 ave 1870 max 1833 min
Histogram: 3 0 1 0 4 3 3 1 0 1
Neighs:    0 ave 0 max 0 min
Histogram: 16 0 0 0 0 0 0 0 0 0
FullNghs:  18854.8 ave 20317 max 17177 min
Histogram: 1 1 0 1 6 2 1 1 1 2

Total # of neighbors = 301676
Ave neighs/atom = 301.676
Neighbor list builds = 1000
Dangerous builds not checked
Setting up Verlet run ...
  Unit style    : real
  Current step  : 5000
  Time step     : 1
Per MPI rank memory allocation (min/avg/max) = 4.577 | 4.578 | 4.58 Mbytes
Step Temp E_pair E_mol TotEng Press Volume Lx Ly Lz S/CPU 
    5000    305.26602   -10476.678            0   -9567.6481   -6610.8016    782.79698    9.2161538    9.2161538    9.2161538            0 
    5100    304.95884   -10475.759            0   -9567.6433   -3554.9132    781.50794    9.2110923    9.2110923    9.2110923    41.232996 
    5200    316.57106   -10513.126            0   -9570.4313   -124.08587    780.23885    9.2061036    9.2061036    9.2061036    33.240075 
    5300    310.91079   -10500.619            0     -9574.78    3623.4145    779.23103    9.2021381    9.2021381    9.2021381    36.439791 
    5400    306.13564   -10493.001            0    -9581.381    10522.283    778.61107     9.199697     9.199697     9.199697     34.56638 
    5500     303.5249   -10496.636            0   -9592.7903    14824.545     778.6365    9.1997972    9.1997972    9.1997972    38.346156 
    5600    303.46815   -10508.603            0   -9604.9265    20091.163    779.39237    9.2027731    9.2027731    9.2027731     28.39598 
    5700    302.73643   -10519.318            0   -9617.8208    13142.923    780.97466    9.2089966    9.2089966    9.2089966    35.031285 
    5800    294.31082   -10505.223            0   -9628.8153   -8414.1366    782.92324    9.2166493    9.2166493    9.2166493     28.68769 
    5900    302.51125   -10539.296            0   -9638.4689     -15385.3    784.57301    9.2231185    9.2231185    9.2231185    39.067149 
    6000    293.19904   -10517.085            0   -9643.9884   -2277.9242    785.55445    9.2269627    9.2269627    9.2269627    36.169033 
Loop time of 28.8653 on 16 procs for 1000 steps with 1000 atoms

Performance: 2.993 ns/day, 8.018 hours/ns, 34.644 timesteps/s
94.3% CPU use with 16 MPI tasks x no OpenMP threads

MPI task timing breakdown:
Section |  min time  |  avg time  |  max time  |%varavg| %total
---------------------------------------------------------------
Pair    | 2.3271     | 2.5963     | 2.9116     |   8.8 |  8.99
Neigh   | 0.76754    | 0.85007    | 0.92847    |   4.8 |  2.94
Comm    | 0.49632    | 0.89211    | 1.2429     |  19.6 |  3.09
Output  | 17.142     | 17.595     | 24.349     |  41.6 | 60.96
Modify  | 0.15978    | 6.9227     | 7.3775     |  66.4 | 23.98
Other   |            | 0.008579   |            |       |  0.03

Nlocal:    62.5 ave 68 max 54 min
Histogram: 1 0 0 0 2 6 2 2 0 3
Nghost:    1850.69 ave 1868 max 1832 min
Histogram: 2 1 1 1 3 2 1 2 0 3
Neighs:    0 ave 0 max 0 min
Histogram: 16 0 0 0 0 0 0 0 0 0
FullNghs:  18787.5 ave 20354 max 16049 min
Histogram: 1 0 0 0 3 4 3 1 1 3

Total # of neighbors = 300600
Ave neighs/atom = 300.6
Neighbor list builds = 1000
Dangerous builds not checked
Setting up Verlet run ...
  Unit style    : real
  Current step  : 6000
  Time step     : 1
Per MPI rank memory allocation (min/avg/max) = 4.577 | 4.578 | 4.58 Mbytes
Step Temp E_pair E_mol TotEng Press Volume Lx Ly Lz S/CPU 
    6000    293.19904   -10517.085            0   -9643.9884   -2277.9242    785.55445    9.2269627    9.2269627    9.2269627            0 
    6100    286.04245   -10497.805            0   -9646.0194   -22505.045    785.78494     9.227865     9.227865     9.227865    36.570694 
    6200    300.47136   -10543.101            0   -9648.3487   -11924.436     785.2186    9.2256476    9.2256476    9.2256476    27.712219 
    6300    295.45331   -10528.719            0   -9648.9099   -6353.6274       783.75    9.2198924    9.2198924    9.2198924    41.655834 
    6400    298.03292   -10535.169            0   -9647.6774   -7958.0056    781.29922    9.2102722    9.2102722    9.2102722    38.826362 
    6500    296.12359   -10527.959            0   -9646.1539    -10089.78    778.40756    9.1988954    9.1988954    9.1988954    31.526767 
    6600    302.44991   -10544.988            0   -9644.3435    18128.563    775.24399    9.1864166    9.1864166    9.1864166    30.590756 
    6700     298.4544   -10529.562            0   -9640.8153    15807.799    772.76581    9.1766176    9.1766176    9.1766176    37.510233 
    6800    302.59346   -10538.338            0    -9637.266     28436.33    771.92389    9.1732837    9.1732837    9.1732837    33.760477 
    6900    299.37478   -10527.969            0   -9636.4816    6791.3386    773.09418    9.1779172    9.1779172    9.1779172    42.616137 
    7000    291.82904   -10504.028            0   -9635.0106   -1797.1371    775.08886    9.1858038    9.1858038    9.1858038    27.483209 
Loop time of 29.3731 on 16 procs for 1000 steps with 1000 atoms

Performance: 2.941 ns/day, 8.159 hours/ns, 34.045 timesteps/s
94.3% CPU use with 16 MPI tasks x no OpenMP threads

MPI task timing breakdown:
Section |  min time  |  avg time  |  max time  |%varavg| %total
---------------------------------------------------------------
Pair    | 2.3728     | 2.5937     | 2.8706     |   9.6 |  8.83
Neigh   | 0.77394    | 0.84872    | 0.91742    |   4.9 |  2.89
Comm    | 0.58875    | 0.93143    | 1.23       |  20.5 |  3.17
Output  | 17.877     | 18.31      | 24.765     |  38.9 | 62.34
Modify  | 0.24562    | 6.6796     | 7.1119     |  64.3 | 22.74
Other   |            | 0.009334   |            |       |  0.03

Nlocal:    62.5 ave 67 max 57 min
Histogram: 3 0 0 1 1 0 2 5 3 1
Nghost:    1885.5 ave 1914 max 1856 min
Histogram: 2 0 0 2 4 3 2 0 2 1
Neighs:    0 ave 0 max 0 min
Histogram: 16 0 0 0 0 0 0 0 0 0
FullNghs:  19045.8 ave 20544 max 17132 min
Histogram: 3 0 0 1 1 1 2 6 1 1

Total # of neighbors = 304732
Ave neighs/atom = 304.732
Neighbor list builds = 1000
Dangerous builds not checked
Setting up Verlet run ...
  Unit style    : real
  Current step  : 7000
  Time step     : 1
Per MPI rank memory allocation (min/avg/max) = 4.577 | 4.578 | 4.58 Mbytes
Step Temp E_pair E_mol TotEng Press Volume Lx Ly Lz S/CPU 
    7000    291.82904   -10504.028            0   -9635.0106   -1797.1371    775.08886    9.1858038    9.1858038    9.1858038            0 
    7100    301.27593   -10530.521            0   -9633.3723    730.78515     777.2579    9.1943644    9.1943644    9.1943644    42.362331 
    7200    286.41523   -10481.993            0   -9629.0975    3589.0095    779.25112    9.2022172    9.2022172    9.2022172    45.682772 
    7300    296.69728   -10507.538            0   -9624.0245   -1950.9966    780.61232    9.2075722    9.2075722    9.2075722    33.086088 
    7400    289.66717   -10478.159            0   -9615.5799   -8624.8883    781.32601    9.2103774    9.2103774    9.2103774    31.184502 
    7500     305.0283   -10512.921            0   -9604.5991   -16937.327    781.47523    9.2109637    9.2109637    9.2109637    33.026587 
    7600    307.03019    -10503.89            0   -9589.6066    10437.212    781.17743    9.2097936    9.2097936    9.2097936    33.768027 
    7700    303.41131    -10477.53            0   -9574.0226   -11516.329    781.34313    9.2104447    9.2104447    9.2104447    36.382013 
    7800    314.27892    -10497.42            0   -9561.5513    5264.5383    781.49016    9.2110224    9.2110224    9.2110224    40.273711 
    7900     299.4333   -10443.666            0   -9552.0045   -6105.3425    781.41662    9.2107335    9.2107335    9.2107335    31.870877 
    8000    311.74524   -10475.036            0   -9546.7114     11975.66    780.86178    9.2085529    9.2085529    9.2085529    31.702342 
Loop time of 28.2916 on 16 procs for 1000 steps with 1000 atoms

Performance: 3.054 ns/day, 7.859 hours/ns, 35.346 timesteps/s
94.4% CPU use with 16 MPI tasks x no OpenMP threads

MPI task timing breakdown:
Section |  min time  |  avg time  |  max time  |%varavg| %total
---------------------------------------------------------------
Pair    | 2.3851     | 2.6266     | 2.8817     |   8.6 |  9.28
Neigh   | 0.78783    | 0.85477    | 0.92512    |   4.5 |  3.02
Comm    | 0.56974    | 0.8833     | 1.1931     |  19.0 |  3.12
Output  | 16.061     | 16.543     | 23.693     |  45.4 | 58.47
Modify  | 0.23176    | 7.3747     | 7.8697     |  67.9 | 26.07
Other   |            | 0.008807   |            |       |  0.03

Nlocal:    62.5 ave 67 max 57 min
Histogram: 2 0 1 1 3 1 1 1 3 3
Nghost:    1857.06 ave 1900 max 1823 min
Histogram: 1 2 2 2 3 1 3 0 1 1
Neighs:    0 ave 0 max 0 min
Histogram: 16 0 0 0 0 0 0 0 0 0
FullNghs:  18886.1 ave 20437 max 17008 min
Histogram: 2 0 2 0 3 2 1 3 1 2

Total # of neighbors = 302178
Ave neighs/atom = 302.178
Neighbor list builds = 1000
Dangerous builds not checked
Setting up Verlet run ...
  Unit style    : real
  Current step  : 8000
  Time step     : 1
Per MPI rank memory allocation (min/avg/max) = 4.577 | 4.578 | 4.58 Mbytes
Step Temp E_pair E_mol TotEng Press Volume Lx Ly Lz S/CPU 
    8000    311.74524   -10475.036            0   -9546.7114     11975.66    780.86178    9.2085529    9.2085529    9.2085529            0 
    8100    310.32407   -10468.299            0   -9544.2069    12314.041    780.56241     9.207376     9.207376     9.207376    36.890184 
    8200    318.57127   -10493.784            0   -9545.1334   -3910.4375    780.88958    9.2086622    9.2086622    9.2086622    39.675288 
    8300    308.24791    -10466.16            0     -9548.25   -3426.0113    781.62431    9.2115494    9.2115494    9.2115494    31.782102 
    8400    303.41837   -10455.181            0   -9551.6525    1021.4591    782.37017    9.2144785    9.2144785    9.2144785    40.755202 
    8500    312.09271    -10487.58            0   -9558.2215   -6113.3046    782.68051    9.2156967    9.2156967    9.2156967    34.554913 
    8600    303.50784   -10467.364            0   -9563.5694   -2167.1884     782.9039    9.2165734    9.2165734    9.2165734    36.692061 
    8700    306.81516   -10483.412            0   -9569.7687   -10074.314     783.2039    9.2177505    9.2177505    9.2177505    29.746604 
    8800    310.13349   -10499.083            0   -9575.5584    6668.5142    783.57514    9.2192067    9.2192067    9.2192067    40.929899 
    8900    302.65848   -10482.351            0   -9581.0856   -1143.0164    784.27496    9.2219504    9.2219504    9.2219504    39.954517 
    9000    306.71327   -10499.618            0    -9586.278     4261.667    785.04036    9.2249495    9.2249495    9.2249495    39.310967 
Loop time of 27.3023 on 16 procs for 1000 steps with 1000 atoms

Performance: 3.165 ns/day, 7.584 hours/ns, 36.627 timesteps/s
94.4% CPU use with 16 MPI tasks x no OpenMP threads

MPI task timing breakdown:
Section |  min time  |  avg time  |  max time  |%varavg| %total
---------------------------------------------------------------
Pair    | 2.3718     | 2.5829     | 2.908      |  10.7 |  9.46
Neigh   | 0.77286    | 0.84621    | 0.92886    |   5.3 |  3.10
Comm    | 0.48085    | 0.88858    | 1.1738     |  23.3 |  3.25
Output  | 16.03      | 16.466     | 22.864     |  40.7 | 60.31
Modify  | 0.12141    | 6.5097     | 6.9456     |  64.6 | 23.84
Other   |            | 0.008575   |            |       |  0.03

Nlocal:    62.5 ave 66 max 58 min
Histogram: 3 0 0 3 0 1 0 5 3 1
Nghost:    1843.44 ave 1863 max 1827 min
Histogram: 3 0 0 6 1 1 1 1 2 1
Neighs:    0 ave 0 max 0 min
Histogram: 16 0 0 0 0 0 0 0 0 0
FullNghs:  18793.6 ave 19818 max 17261 min
Histogram: 3 0 0 0 3 1 0 4 2 3

Total # of neighbors = 300698
Ave neighs/atom = 300.698
Neighbor list builds = 1000
Dangerous builds not checked
Setting up Verlet run ...
  Unit style    : real
  Current step  : 9000
  Time step     : 1
Per MPI rank memory allocation (min/avg/max) = 4.577 | 4.578 | 4.58 Mbytes
Step Temp E_pair E_mol TotEng Press Volume Lx Ly Lz S/CPU 
    9000    306.71327   -10499.618            0    -9586.278     4261.667    785.04036    9.2249495    9.2249495    9.2249495            0 
    9100    303.18312   -10492.701            0   -9589.8738   -223.36357     785.7262    9.2276351    9.2276351    9.2276351    34.643446 
    9200    306.61093   -10506.685            0   -9593.6496   -6051.6777    785.90853    9.2283488    9.2283488    9.2283488    37.736356 
    9300    311.10118   -10523.997            0   -9597.5904   -11129.206    785.37017    9.2262411    9.2262411    9.2262411    34.537468 
    9400    292.55069    -10471.09            0   -9599.9236    4651.0663    784.46666    9.2227017    9.2227017    9.2227017    28.566204 
    9500    288.72998   -10461.819            0   -9602.0303    5882.0724      783.305    9.2181471    9.2181471    9.2181471    44.912225 
    9600    293.78213   -10480.524            0   -9605.6914    6268.3218     781.8665    9.2125007    9.2125007    9.2125007    33.869948 
    9700    296.46375   -10489.476            0   -9606.6572   -1865.5251    780.16896    9.2058287    9.2058287    9.2058287    27.583504 
    9800    299.03975   -10498.522            0   -9608.0326    741.66992    778.05131    9.1974919    9.1974919    9.1974919    33.018571 
    9900    290.48401   -10474.477            0   -9609.4651    -10507.73    775.44621    9.1872152    9.1872152    9.1872152    35.677765 
   10000    293.96492   -10487.137            0   -9611.7601    20515.778    772.56892    9.1758381    9.1758381    9.1758381    35.219555 
Loop time of 29.4078 on 16 procs for 1000 steps with 1000 atoms

Performance: 2.938 ns/day, 8.169 hours/ns, 34.005 timesteps/s
94.4% CPU use with 16 MPI tasks x no OpenMP threads

MPI task timing breakdown:
Section |  min time  |  avg time  |  max time  |%varavg| %total
---------------------------------------------------------------
Pair    | 2.3935     | 2.6129     | 3.0036     |  10.7 |  8.89
Neigh   | 0.79145    | 0.85471    | 0.95226    |   5.2 |  2.91
Comm    | 0.51329    | 1.0023     | 1.2849     |  22.0 |  3.41
Output  | 17.669     | 18.12      | 24.79      |  40.5 | 61.62
Modify  | 0.14247    | 6.8091     | 7.2609     |  66.0 | 23.15
Other   |            | 0.008583   |            |       |  0.03

Nlocal:    62.5 ave 69 max 56 min
Histogram: 1 1 1 2 3 3 2 1 1 1
Nghost:    1880 ave 1899 max 1860 min
Histogram: 1 3 1 0 3 1 2 3 0 2
Neighs:    0 ave 0 max 0 min
Histogram: 16 0 0 0 0 0 0 0 0 0
FullNghs:  19107.1 ave 21200 max 16951 min
Histogram: 1 1 1 3 2 2 3 1 1 1

Total # of neighbors = 305714
Ave neighs/atom = 305.714
Neighbor list builds = 1000
Dangerous builds not checked
Setting up Verlet run ...
  Unit style    : real
  Current step  : 10000
  Time step     : 1
Per MPI rank memory allocation (min/avg/max) = 4.577 | 4.578 | 4.58 Mbytes
Step Temp E_pair E_mol TotEng Press Volume Lx Ly Lz S/CPU 
   10000    293.96492   -10487.137            0   -9611.7601    20515.778    772.56892    9.1758381    9.1758381    9.1758381            0 
   10100    310.89605   -10540.729            0   -9614.9339     19194.26     770.6347    9.1681741    9.1681741    9.1681741    33.429409 
   10200    299.07086   -10509.568            0   -9618.9856    27769.691    769.99197    9.1656246    9.1656246    9.1656246    38.518128 
   10300    300.71594   -10522.825            0   -9627.3442    15297.376    770.68187    9.1683612    9.1683612    9.1683612    38.334945 
   10400    305.71244   -10552.694            0   -9642.3345    4967.2652    772.41639    9.1752342    9.1752342    9.1752342    31.623655 
   10500    290.37916   -10524.791            0   -9660.0915    12698.239     774.5608    9.1837172    9.1837172    9.1837172    36.182381 
   10600    292.50881   -10550.148            0   -9679.1069   -4550.5139    777.26551    9.1943944    9.1943944    9.1943944    29.782658 
   10700    296.89085   -10576.229            0    -9692.139   -17467.949    779.89225    9.2047402    9.2047402    9.2047402    41.840464 
   10800    283.32252   -10541.463            0   -9697.7774   -2369.2077    781.89357    9.2126071    9.2126071    9.2126071    38.828822 
   10900    285.77684   -10551.168            0   -9700.1731   -6640.8526    783.49423    9.2188893    9.2188893    9.2188893    28.519935 
   11000    286.03013   -10549.437            0   -9697.6879   -5814.9957    784.52174    9.2229176    9.2229176    9.2229176    42.213752 
Loop time of 28.3204 on 16 procs for 1000 steps with 1000 atoms

Performance: 3.051 ns/day, 7.867 hours/ns, 35.310 timesteps/s
94.4% CPU use with 16 MPI tasks x no OpenMP threads

MPI task timing breakdown:
Section |  min time  |  avg time  |  max time  |%varavg| %total
---------------------------------------------------------------
Pair    | 2.4658     | 2.6383     | 2.9075     |   9.4 |  9.32
Neigh   | 0.78928    | 0.8549     | 0.92636    |   4.9 |  3.02
Comm    | 0.52515    | 0.8662     | 1.1038     |  21.1 |  3.06
Output  | 16.797     | 17.239     | 23.802     |  40.8 | 60.87
Modify  | 0.15453    | 6.7134     | 7.1548     |  65.4 | 23.71
Other   |            | 0.008624   |            |       |  0.03

Nlocal:    62.5 ave 68 max 57 min
Histogram: 2 1 1 2 1 3 2 2 0 2
Nghost:    1859.75 ave 1882 max 1842 min
Histogram: 2 0 3 3 1 3 2 0 0 2
Neighs:    0 ave 0 max 0 min
Histogram: 16 0 0 0 0 0 0 0 0 0
FullNghs:  18803.1 ave 20429 max 16997 min
Histogram: 1 1 2 1 2 3 1 3 0 2

Total # of neighbors = 300850
Ave neighs/atom = 300.85
Neighbor list builds = 1000
Dangerous builds not checked
Setting up Verlet run ...
  Unit style    : real
  Current step  : 11000
  Time step     : 1
Per MPI rank memory allocation (min/avg/max) = 4.577 | 4.578 | 4.58 Mbytes
Step Temp E_pair E_mol TotEng Press Volume Lx Ly Lz S/CPU 
   11000    286.03013   -10549.437            0   -9697.6879   -5814.9957    784.52174    9.2229176    9.2229176    9.2229176            0 
   11100    290.22659   -10557.369            0   -9693.1242   -8806.0835    784.87931    9.2243186    9.2243186    9.2243186    33.048581 
   11200    299.01416   -10578.756            0   -9688.3434   -13350.421    784.35252    9.2222544    9.2222544    9.2222544    38.861675 
   11300    291.33088   -10548.655            0   -9681.1209     12008.94    783.14474    9.2175184    9.2175184    9.2175184    42.958926 
   11400    296.18864     -10553.7            0   -9671.7006    702.24595    781.98571    9.2129689    9.2129689    9.2129689    32.589174 
   11500    292.17603   -10532.893            0   -9662.8423    1024.0577    780.99593    9.2090802    9.2090802    9.2090802    37.103311 
   11600    289.78288   -10516.563            0   -9653.6389    6027.8588    780.04275    9.2053323    9.2053323    9.2053323    38.758273 
   11700    287.68247    -10501.57            0   -9644.9008    1694.1137    779.47274    9.2030895    9.2030895    9.2030895    34.057393 
   11800    295.21969   -10516.534            0     -9637.42   -1116.9898    779.03517     9.201367     9.201367     9.201367      34.7687 
   11900    295.09451   -10508.399            0   -9629.6582   -16540.058    778.48928    9.1992173    9.1992173    9.1992173    32.900544 
   12000    292.02404   -10492.745            0   -9623.1476    2534.9967    777.49268    9.1952901    9.1952901    9.1952901    29.447631 
Loop time of 28.5184 on 16 procs for 1000 steps with 1000 atoms

Performance: 3.030 ns/day, 7.922 hours/ns, 35.065 timesteps/s
94.4% CPU use with 16 MPI tasks x no OpenMP threads

MPI task timing breakdown:
Section |  min time  |  avg time  |  max time  |%varavg| %total
---------------------------------------------------------------
Pair    | 2.4102     | 2.5803     | 2.9039     |   8.7 |  9.05
Neigh   | 0.79411    | 0.84616    | 0.93076    |   4.7 |  2.97
Comm    | 0.45631    | 0.86861    | 1.0896     |  19.6 |  3.05
Output  | 16.615     | 17.084     | 24.05      |  43.5 | 59.91
Modify  | 0.16258    | 7.1304     | 7.6027     |  67.4 | 25.00
Other   |            | 0.008557   |            |       |  0.03

Nlocal:    62.5 ave 72 max 55 min
Histogram: 1 1 4 0 4 2 2 1 0 1
Nghost:    1882.62 ave 1896 max 1868 min
Histogram: 2 1 2 0 1 3 2 2 1 2
Neighs:    0 ave 0 max 0 min
Histogram: 16 0 0 0 0 0 0 0 0 0
FullNghs:  18970.1 ave 22013 max 16754 min
Histogram: 1 2 2 4 1 2 3 0 0 1

Total # of neighbors = 303522
Ave neighs/atom = 303.522
Neighbor list builds = 1000
Dangerous builds not checked
Setting up Verlet run ...
  Unit style    : real
  Current step  : 12000
  Time step     : 1
Per MPI rank memory allocation (min/avg/max) = 4.577 | 4.578 | 4.58 Mbytes
Step Temp E_pair E_mol TotEng Press Volume Lx Ly Lz S/CPU 
   12000    292.02404   -10492.745            0   -9623.1476    2534.9967    777.49268    9.1952901    9.1952901    9.1952901            0 
   12100    304.60983   -10524.308            0   -9617.2319    17962.797    776.69464    9.1921429    9.1921429    9.1921429    39.461449 
   12200    296.71147   -10494.872            0   -9611.3164    21261.893    776.97556     9.193251     9.193251     9.193251    33.519086 
   12300    314.21998   -10541.845            0   -9606.1514    4609.8432    778.20798    9.1981092    9.1981092    9.1981092    38.952033 
   12400    290.85196   -10467.264            0   -9601.1565   -4604.6908    779.97417    9.2050625    9.2050625    9.2050625    36.656791 
   12500    306.32588   -10509.881            0   -9597.6948    14227.893    781.63673    9.2115982    9.2115982    9.2115982    34.586397 
   12600    300.68909   -10489.784            0   -9594.3834   -975.64847    783.63303    9.2194337    9.2194337    9.2194337    37.549035 
   12700    297.46243   -10476.857            0   -9591.0642   -9103.5263    785.45467     9.226572     9.226572     9.226572    33.426208 
   12800    285.81965   -10439.212            0   -9588.0894   -4154.2649    786.66628    9.2313137    9.2313137    9.2313137    30.177122 
   12900     301.7866   -10482.655            0   -9583.9857   -12059.822    787.34294    9.2339598    9.2339598    9.2339598    33.092789 
   13000    302.17604    -10480.47            0   -9580.6416    938.32991    787.44099    9.2343431    9.2343431    9.2343431    34.469014 
Loop time of 28.5957 on 16 procs for 1000 steps with 1000 atoms

Performance: 3.021 ns/day, 7.943 hours/ns, 34.970 timesteps/s
94.3% CPU use with 16 MPI tasks x no OpenMP threads

MPI task timing breakdown:
Section |  min time  |  avg time  |  max time  |%varavg| %total
---------------------------------------------------------------
Pair    | 2.4149     | 2.6131     | 2.9235     |   8.8 |  9.14
Neigh   | 0.80008    | 0.85426    | 0.92735    |   4.4 |  2.99
Comm    | 0.56111    | 0.9432     | 1.1973     |  18.6 |  3.30
Output  | 16.04      | 16.543     | 24.04      |  47.6 | 57.85
Modify  | 0.1377     | 7.6331     | 8.1462     |  70.0 | 26.69
Other   |            | 0.008608   |            |       |  0.03

Nlocal:    62.5 ave 66 max 59 min
Histogram: 2 2 1 0 4 1 0 2 2 2
Nghost:    1856.88 ave 1876 max 1838 min
Histogram: 1 3 1 2 1 1 2 3 0 2
Neighs:    0 ave 0 max 0 min
Histogram: 16 0 0 0 0 0 0 0 0 0
FullNghs:  18736.9 ave 19961 max 17537 min
Histogram: 3 0 2 1 3 0 2 2 1 2

Total # of neighbors = 299790
Ave neighs/atom = 299.79
Neighbor list builds = 1000
Dangerous builds not checked
Setting up Verlet run ...
  Unit style    : real
  Current step  : 13000
  Time step     : 1
Per MPI rank memory allocation (min/avg/max) = 4.577 | 4.578 | 4.58 Mbytes
Step Temp E_pair E_mol TotEng Press Volume Lx Ly Lz S/CPU 
   13000    302.17604    -10480.47            0   -9580.6416    938.32991    787.44099    9.2343431    9.2343431    9.2343431            0 
   13100    304.79255   -10482.411            0    -9574.791   -10862.872    787.22088    9.2334826    9.2334826    9.2334826    30.697295 
   13200    302.64195   -10471.155            0   -9569.9387   -13777.366    786.91994    9.2323058    9.2323058    9.2323058    39.810026 
   13300    304.53817   -10469.187            0   -9562.3239   -6327.1805    786.41061    9.2303136    9.2303136    9.2303136    32.807952 
   13400    317.82758   -10500.958            0    -9554.522    11173.022    786.04143     9.228869     9.228869     9.228869    37.758588 
   13500    305.18595   -10454.934            0   -9546.1422    -9071.268    786.31819     9.229952     9.229952     9.229952    35.350506 
   13600    293.57085   -10410.811            0   -9536.6067    -7328.393    787.06154    9.2328596    9.2328596    9.2328596    37.859285 
   13700    312.28687    -10459.11            0   -9529.1727   -6393.8718    787.94261    9.2363035    9.2363035    9.2363035    32.569205 
   13800    315.24215   -10457.655            0   -9518.9173    3177.8469    788.76274    9.2395069    9.2395069    9.2395069    38.848937 
   13900    319.91376    -10462.41            0   -9509.7616    2436.0838     789.4124    9.2420429    9.2420429    9.2420429    32.995717 
   14000    314.55641   -10438.573            0   -9501.8781    3425.4544    790.05074    9.2445334    9.2445334    9.2445334     41.08118 
Loop time of 28.0455 on 16 procs for 1000 steps with 1000 atoms

Performance: 3.081 ns/day, 7.790 hours/ns, 35.656 timesteps/s
94.4% CPU use with 16 MPI tasks x no OpenMP threads

MPI task timing breakdown:
Section |  min time  |  avg time  |  max time  |%varavg| %total
---------------------------------------------------------------
Pair    | 2.3547     | 2.5471     | 2.8526     |  10.5 |  9.08
Neigh   | 0.79125    | 0.84306    | 0.92533    |   4.9 |  3.01
Comm    | 0.61883    | 1.0058     | 1.2507     |  21.1 |  3.59
Output  | 17.019     | 17.43      | 23.511     |  37.6 | 62.15
Modify  | 0.13746    | 6.2109     | 6.6289     |  62.9 | 22.15
Other   |            | 0.008733   |            |       |  0.03

Nlocal:    62.5 ave 67 max 58 min
Histogram: 1 0 2 4 2 2 1 1 2 1
Nghost:    1833.31 ave 1853 max 1806 min
Histogram: 1 0 2 0 4 2 2 1 1 3
Neighs:    0 ave 0 max 0 min
Histogram: 16 0 0 0 0 0 0 0 0 0
FullNghs:  18682.1 ave 19963 max 17404 min
Histogram: 1 1 2 3 2 2 1 1 0 3

Total # of neighbors = 298914
Ave neighs/atom = 298.914
Neighbor list builds = 1000
Dangerous builds not checked
Setting up Verlet run ...
  Unit style    : real
  Current step  : 14000
  Time step     : 1
Per MPI rank memory allocation (min/avg/max) = 4.577 | 4.578 | 4.58 Mbytes
Step Temp E_pair E_mol TotEng Press Volume Lx Ly Lz S/CPU 
   14000    314.55641   -10438.573            0   -9501.8781    3425.4544    790.05074    9.2445334    9.2445334    9.2445334            0 
   14100    315.49848   -10435.125            0   -9495.6248   -4600.1908    790.57741    9.2465871    9.2465871    9.2465871    35.074244 
   14200    325.54488   -10462.214            0   -9492.7968   -6007.3323     791.0299    9.2483509    9.2483509    9.2483509    33.278936 
   14300    314.71181   -10428.864            0   -9491.7063   -5191.8173    791.19168    9.2489814    9.2489814    9.2489814    42.462797 
   14400    300.43543   -10389.162            0   -9494.5166    602.23721    790.72344    9.2471564    9.2471564    9.2471564     32.74396 
   14500    318.46907   -10453.101            0   -9504.7542   -246.14993    790.08468    9.2446658    9.2446658    9.2446658    26.998756 
   14600    316.48937     -10461.3            0   -9518.8491    1986.2158    789.89039    9.2439079    9.2439079    9.2439079    37.316652 
   14700    309.91062   -10456.208            0   -9533.3476   -22414.554    790.21715    9.2451824    9.2451824    9.2451824    35.607965 
   14800    314.35668   -10486.263            0   -9550.1624   -5015.6212    790.56992    9.2465579    9.2465579    9.2465579    27.329524 
   14900    298.22986   -10450.459            0   -9562.3809   -5628.4332    790.82034    9.2475342    9.2475342    9.2475342    36.082268 
   15000    303.97844    -10477.71            0   -9572.5139    2305.0338    790.80449    9.2474724    9.2474724    9.2474724     29.84885 
Loop time of 30.2377 on 16 procs for 1000 steps with 1000 atoms

Performance: 2.857 ns/day, 8.399 hours/ns, 33.071 timesteps/s
94.3% CPU use with 16 MPI tasks x no OpenMP threads

MPI task timing breakdown:
Section |  min time  |  avg time  |  max time  |%varavg| %total
---------------------------------------------------------------
Pair    | 2.2586     | 2.4957     | 2.7896     |  10.2 |  8.25
Neigh   | 0.75535    | 0.83298    | 0.92748    |   5.5 |  2.75
Comm    | 0.46013    | 0.84983    | 1.1647     |  22.8 |  2.81
Output  | 18.067     | 18.56      | 25.908     |  44.0 | 61.38
Modify  | 0.13773    | 7.4909     | 7.9847     |  69.4 | 24.77
Other   |            | 0.008441   |            |       |  0.03

Nlocal:    62.5 ave 67 max 59 min
Histogram: 2 1 5 0 0 2 3 0 2 1
Nghost:    1849.25 ave 1866 max 1819 min
Histogram: 1 0 1 2 1 1 1 3 3 3
Neighs:    0 ave 0 max 0 min
Histogram: 16 0 0 0 0 0 0 0 0 0
FullNghs:  18672.1 ave 20260 max 17479 min
Histogram: 2 3 3 0 2 0 3 0 2 1

Total # of neighbors = 298754
Ave neighs/atom = 298.754
Neighbor list builds = 1000
Dangerous builds not checked
Setting up Verlet run ...
  Unit style    : real
  Current step  : 15000
  Time step     : 1
Per MPI rank memory allocation (min/avg/max) = 4.577 | 4.578 | 4.58 Mbytes
Step Temp E_pair E_mol TotEng Press Volume Lx Ly Lz S/CPU 
   15000    303.97844    -10477.71            0   -9572.5139    2305.0338    790.80449    9.2474724    9.2474724    9.2474724            0 
   15100    304.39546   -10486.217            0   -9579.7791   -7584.4986    790.64709    9.2468588    9.2468588    9.2468588    33.747765 
   15200    305.08037   -10493.485            0   -9585.0081   -8616.3096    790.03911     9.244488     9.244488     9.244488    35.998091 
   15300    294.12577   -10466.992            0   -9591.1358   -7756.2386    788.90007    9.2400431    9.2400431    9.2400431     36.23089 
   15400    304.47813   -10504.395            0   -9597.7109   -7804.0217    787.34397    9.2339638    9.2339638    9.2339638     34.21227 
   15500    303.46255   -10506.212            0   -9602.5522    2139.0099    785.59612    9.2271258    9.2271258    9.2271258    46.990793 
   15600    296.53941   -10490.042            0   -9606.9979    8051.9945    783.86403    9.2203395    9.2203395    9.2203395    34.625487 
   15700    303.13055   -10514.188            0    -9611.517    6805.7539    782.42665    9.2147002    9.2147002    9.2147002    37.098659 
   15800    294.42091    -10493.22            0    -9616.485    8310.7321     781.5232    9.2111522    9.2111522    9.2111522    42.925097 
   15900    297.22651   -10505.155            0   -9620.0654    11690.189    780.89861    9.2086977    9.2086977    9.2086977     29.81297 
   16000    302.13353   -10522.984            0   -9623.2821     20175.78     780.8949    9.2086831    9.2086831    9.2086831    38.252724 
Loop time of 27.4338 on 16 procs for 1000 steps with 1000 atoms

Performance: 3.149 ns/day, 7.621 hours/ns, 36.451 timesteps/s
94.4% CPU use with 16 MPI tasks x no OpenMP threads

MPI task timing breakdown:
Section |  min time  |  avg time  |  max time  |%varavg| %total
---------------------------------------------------------------
Pair    | 2.3305     | 2.5787     | 2.8726     |   9.1 |  9.40
Neigh   | 0.77487    | 0.84882    | 0.92619    |   4.8 |  3.09
Comm    | 0.48766    | 0.85973    | 1.1823     |  20.5 |  3.13
Output  | 15.543     | 16.014     | 23.032     |  45.3 | 58.37
Modify  | 0.10535    | 7.1237     | 7.5948     |  67.9 | 25.97
Other   |            | 0.008552   |            |       |  0.03

Nlocal:    62.5 ave 68 max 57 min
Histogram: 1 3 0 1 4 1 2 2 0 2
Nghost:    1860.44 ave 1874 max 1845 min
Histogram: 2 0 1 3 3 0 2 2 1 2
Neighs:    0 ave 0 max 0 min
Histogram: 16 0 0 0 0 0 0 0 0 0
FullNghs:  18908.9 ave 20765 max 17073 min
Histogram: 1 1 2 1 4 2 2 1 0 2

Total # of neighbors = 302542
Ave neighs/atom = 302.542
Neighbor list builds = 1000
Dangerous builds not checked
Setting up Verlet run ...
  Unit style    : real
  Current step  : 16000
  Time step     : 1
Per MPI rank memory allocation (min/avg/max) = 4.577 | 4.578 | 4.58 Mbytes
Step Temp E_pair E_mol TotEng Press Volume Lx Ly Lz S/CPU 
   16000    302.13353   -10522.984            0   -9623.2821     20175.78     780.8949    9.2086831    9.2086831    9.2086831            0 
   16100    296.66453   -10507.677            0   -9624.2608    7666.2428    781.36205     9.210519     9.210519     9.210519    32.959097 
   16200    293.34437   -10498.581            0    -9625.052     2196.646    782.03993    9.2131818    9.2131818    9.2131818    35.423391 
   16300    311.05017    -10552.45            0   -9626.1954   -12667.165    782.62781    9.2154899    9.2154899    9.2154899    40.592768 
   16400    306.59458     -10539.1            0   -9626.1137    4772.6877     782.8519    9.2163693    9.2163693    9.2163693    34.486691 
   16500    291.67005   -10493.008            0   -9624.4642   -778.38789    782.83827    9.2163158    9.2163158    9.2163158    34.130785 
   16600    302.92274   -10525.768            0   -9623.7159     2586.534    782.34719    9.2143883    9.2143883    9.2143883    34.916767 
   16700    296.11522   -10502.607            0   -9620.8268    2812.5629    781.34089    9.2104359    9.2104359    9.2104359    40.771145 
   16800    289.77998   -10480.718            0   -9617.8026    -15160.18    780.32931    9.2064594    9.2064594    9.2064594    33.135385 
   16900    302.57817   -10515.165            0   -9614.1393     14362.29     779.1303    9.2017416    9.2017416    9.2017416    34.142239 
   17000    314.10118   -10547.226            0   -9611.8867    8927.1609    778.49218    9.1992287    9.1992287    9.1992287    32.775686 
Loop time of 28.4647 on 16 procs for 1000 steps with 1000 atoms

Performance: 3.035 ns/day, 7.907 hours/ns, 35.131 timesteps/s
94.4% CPU use with 16 MPI tasks x no OpenMP threads

MPI task timing breakdown:
Section |  min time  |  avg time  |  max time  |%varavg| %total
---------------------------------------------------------------
Pair    | 2.3075     | 2.6225     | 2.848      |   9.2 |  9.21
Neigh   | 0.76954    | 0.85598    | 0.91466    |   4.8 |  3.01
Comm    | 0.70916    | 0.99463    | 1.3913     |  19.5 |  3.49
Output  | 16.695     | 17.142     | 23.791     |  41.5 | 60.22
Modify  | 0.17217    | 6.8409     | 7.2951     |  65.8 | 24.03
Other   |            | 0.008589   |            |       |  0.03

Nlocal:    62.5 ave 68 max 57 min
Histogram: 2 0 1 2 3 1 4 2 0 1
Nghost:    1858.38 ave 1878 max 1843 min
Histogram: 1 1 4 2 3 1 1 0 1 2
Neighs:    0 ave 0 max 0 min
Histogram: 16 0 0 0 0 0 0 0 0 0
FullNghs:  18980.5 ave 20640 max 17056 min
Histogram: 1 1 0 2 3 1 4 3 0 1

Total # of neighbors = 303688
Ave neighs/atom = 303.688
Neighbor list builds = 1000
Dangerous builds not checked
Setting up Verlet run ...
  Unit style    : real
  Current step  : 17000
  Time step     : 1
Per MPI rank memory allocation (min/avg/max) = 4.577 | 4.578 | 4.58 Mbytes
Step Temp E_pair E_mol TotEng Press Volume Lx Ly Lz S/CPU 
   17000    314.10118   -10547.226            0   -9611.8867    8927.1609    778.49218    9.1992287    9.1992287    9.1992287            0 
   17100     306.1952   -10518.069            0   -9606.2721     9953.047     778.4396    9.1990216    9.1990216    9.1990216    43.074455 
   17200    306.22066   -10515.497            0   -9603.6246    11331.989    779.20111    9.2020203    9.2020203    9.2020203    37.686921 
   17300    293.60282   -10476.607            0   -9602.3084   -1497.0926    780.75936    9.2081503    9.2081503    9.2081503    41.829749 
   17400    304.39305   -10508.506            0   -9602.0759    349.56005    782.63222    9.2155072    9.2155072    9.2155072    30.557429 
   17500    295.99687   -10481.144            0    -9599.716   -3665.9649    784.31304    9.2220997    9.2220997    9.2220997     34.85599 
   17600    303.93219   -10501.719            0   -9596.6604   -5850.6916    785.64491    9.2273168    9.2273168    9.2273168    39.080107 
   17700    288.11638    -10450.07            0   -9592.1082   -21809.246    786.58526    9.2309968    9.2309968    9.2309968    34.896528 
   17800    300.55553   -10483.204            0   -9588.2009   -13128.877    786.36124    9.2301204    9.2301204    9.2301204    37.653634 
   17900    296.21362   -10464.264            0   -9582.1903    -20542.27    785.11451    9.2252399    9.2252399    9.2252399    39.416291 
   18000    310.03452   -10499.935            0   -9576.7054   -7070.2013    783.21701    9.2178019    9.2178019    9.2178019    43.298696 
Loop time of 26.434 on 16 procs for 1000 steps with 1000 atoms

Performance: 3.269 ns/day, 7.343 hours/ns, 37.830 timesteps/s
94.4% CPU use with 16 MPI tasks x no OpenMP threads

MPI task timing breakdown:
Section |  min time  |  avg time  |  max time  |%varavg| %total
---------------------------------------------------------------
Pair    | 2.3141     | 2.5795     | 2.8722     |  10.1 |  9.76
Neigh   | 0.76378    | 0.84685    | 0.92769    |   5.1 |  3.20
Comm    | 0.50885    | 0.8825     | 1.2322     |  22.2 |  3.34
Output  | 14.869     | 15.317     | 21.984     |  44.0 | 57.95
Modify  | 0.13507    | 6.7992     | 7.2469     |  66.0 | 25.72
Other   |            | 0.008582   |            |       |  0.03

Nlocal:    62.5 ave 68 max 57 min
Histogram: 1 1 4 0 2 2 1 3 0 2
Nghost:    1870.56 ave 1885 max 1850 min
Histogram: 1 2 1 1 1 0 3 1 2 4
Neighs:    0 ave 0 max 0 min
Histogram: 16 0 0 0 0 0 0 0 0 0
FullNghs:  18826.2 ave 20392 max 17169 min
Histogram: 1 1 3 1 2 1 2 3 0 2

Total # of neighbors = 301220
Ave neighs/atom = 301.22
Neighbor list builds = 1000
Dangerous builds not checked
Setting up Verlet run ...
  Unit style    : real
  Current step  : 18000
  Time step     : 1
Per MPI rank memory allocation (min/avg/max) = 4.577 | 4.578 | 4.58 Mbytes
Step Temp E_pair E_mol TotEng Press Volume Lx Ly Lz S/CPU 
   18000    310.03452   -10499.935            0   -9576.7054   -7070.2013    783.21701    9.2178019    9.2178019    9.2178019            0 
   18100    313.21743   -10504.307            0   -9571.5988    8073.8543    781.31373    9.2103292    9.2103292    9.2103292    38.137438 
   18200    305.43142   -10477.336            0   -9567.8133     6721.836    779.54968    9.2033923    9.2033923    9.2033923    39.832925 
   18300    309.39908   -10489.092            0   -9567.7546    13617.102    778.14823    9.1978738    9.1978738    9.1978738    35.615544 
   18400    324.28888   -10535.622            0   -9569.9453    23505.268    777.78334    9.1964358    9.1964358    9.1964358    39.464561 
   18500    304.67898   -10480.334            0   -9573.0518    13788.813    778.43076    9.1989868    9.1989868    9.1989868    38.970878 
   18600    305.46254   -10490.454            0   -9580.8387    9922.7149    779.90492      9.20479      9.20479      9.20479    36.792683 
   18700    297.19837   -10474.605            0   -9589.5986   -3399.5633    781.75367    9.2120576    9.2120576    9.2120576    40.501098 
   18800    294.56776   -10478.521            0   -9601.3485    4137.2366     783.4282    9.2186303    9.2186303    9.2186303    35.096258 
   18900    292.98802   -10485.994            0   -9613.5259   -5476.2922    785.12181    9.2252685    9.2252685    9.2252685    34.231015 
   19000    295.95865   -10506.965            0   -9625.6504   -13306.424    786.07463    9.2289989    9.2289989    9.2289989    40.623793 
Loop time of 26.4596 on 16 procs for 1000 steps with 1000 atoms

Performance: 3.265 ns/day, 7.350 hours/ns, 37.794 timesteps/s
94.4% CPU use with 16 MPI tasks x no OpenMP threads

MPI task timing breakdown:
Section |  min time  |  avg time  |  max time  |%varavg| %total
---------------------------------------------------------------
Pair    | 2.3332     | 2.5699     | 2.8455     |   9.2 |  9.71
Neigh   | 0.76264    | 0.84089    | 0.92002    |   4.8 |  3.18
Comm    | 0.52283    | 0.87752    | 1.1931     |  20.5 |  3.32
Output  | 15.664     | 16.069     | 22.094     |  38.8 | 60.73
Modify  | 0.068922   | 6.0935     | 6.4985     |  63.0 | 23.03
Other   |            | 0.008547   |            |       |  0.03

Nlocal:    62.5 ave 67 max 59 min
Histogram: 1 3 3 1 0 3 1 2 1 1
Nghost:    1853.44 ave 1886 max 1817 min
Histogram: 1 2 2 2 1 1 1 2 2 2
Neighs:    0 ave 0 max 0 min
Histogram: 16 0 0 0 0 0 0 0 0 0
FullNghs:  18767.5 ave 20178 max 17765 min
Histogram: 4 0 3 1 2 2 0 2 1 1

Total # of neighbors = 300280
Ave neighs/atom = 300.28
Neighbor list builds = 1000
Dangerous builds not checked
Setting up Verlet run ...
  Unit style    : real
  Current step  : 19000
  Time step     : 1
Per MPI rank memory allocation (min/avg/max) = 4.577 | 4.578 | 4.58 Mbytes
Step Temp E_pair E_mol TotEng Press Volume Lx Ly Lz S/CPU 
   19000    295.95865   -10506.965            0   -9625.6504   -13306.424    786.07463    9.2289989    9.2289989    9.2289989            0 
   19100    307.60694   -10552.252            0   -9636.2506   -26330.806    785.81837    9.2279959    9.2279959    9.2279959    31.471618 
   19200    281.87389   -10479.619            0   -9640.2471   -20031.489    784.62685    9.2233295    9.2233295    9.2233295    41.107389 
   19300    295.68094   -10525.178            0   -9644.6908    6392.9743    782.71495    9.2158319    9.2158319    9.2158319    39.635216 
   19400    301.28216   -10541.747            0   -9644.5805   -142.10885     780.8993    9.2087004    9.2087004    9.2087004    37.790884 
   19500    298.12541   -10531.246            0   -9643.4796    15608.582    779.55155    9.2033996    9.2033996    9.2033996    37.172446 
   19600    298.34292   -10528.186            0   -9639.7718     16830.56    778.93506    9.2009729    9.2009729    9.2009729    37.369948 
   19700    288.64328   -10495.492            0   -9635.9615    8836.0992    779.29288    9.2023816    9.2023816    9.2023816    33.673005 
   19800    307.03784   -10546.268            0   -9631.9621    4385.1751    780.19868    9.2059456    9.2059456    9.2059456    40.061504 
   19900    293.03708   -10499.068            0   -9626.4539    4803.3946    781.33207    9.2104012    9.2104012    9.2104012    28.782312 
   20000    295.13626   -10500.234            0   -9621.3684   -7335.1927     782.4904    9.2149505    9.2149505    9.2149505    37.653187 
Loop time of 27.7415 on 16 procs for 1000 steps with 1000 atoms

Performance: 3.114 ns/day, 7.706 hours/ns, 36.047 timesteps/s
94.4% CPU use with 16 MPI tasks x no OpenMP threads

MPI task timing breakdown:
Section |  min time  |  avg time  |  max time  |%varavg| %total
---------------------------------------------------------------
Pair    | 2.3729     | 2.5951     | 2.8859     |   9.2 |  9.35
Neigh   | 0.77351    | 0.85029    | 0.91773    |   4.6 |  3.07
Comm    | 0.56938    | 0.926      | 1.2271     |  19.6 |  3.34
Output  | 16.524     | 16.949     | 23.24      |  39.5 | 61.10
Modify  | 0.12656    | 6.4121     | 6.8391     |  64.1 | 23.11
Other   |            | 0.008577   |            |       |  0.03

Nlocal:    62.5 ave 69 max 59 min
Histogram: 1 3 2 2 3 3 1 0 0 1
Nghost:    1863.19 ave 1880 max 1844 min
Histogram: 1 3 1 1 1 1 3 0 3 2
Neighs:    0 ave 0 max 0 min
Histogram: 16 0 0 0 0 0 0 0 0 0
FullNghs:  18855.2 ave 20778 max 17731 min
Histogram: 1 4 1 3 3 2 1 0 0 1

Total # of neighbors = 301684
Ave neighs/atom = 301.684
Neighbor list builds = 1000
Dangerous builds not checked
Setting up Verlet run ...
  Unit style    : real
  Current step  : 20000
  Time step     : 1
Per MPI rank memory allocation (min/avg/max) = 4.577 | 4.578 | 4.58 Mbytes
Step Temp E_pair E_mol TotEng Press Volume Lx Ly Lz S/CPU 
   20000    295.13626   -10500.234            0   -9621.3684   -7335.1927     782.4904    9.2149505    9.2149505    9.2149505            0 
   20100    298.77797   -10505.764            0    -9616.054   -7553.7801    783.49215    9.2188812    9.2188812    9.2188812    37.468722 
   20200    291.58336   -10477.439            0   -9609.1533   -17695.904    784.48848    9.2227872    9.2227872    9.2227872    38.894207 
   20300    299.43286   -10495.067            0   -9603.4067   -7432.3653    784.82783    9.2241169    9.2241169    9.2241169    40.450413 
   20400     289.3769    -10459.28            0   -9597.5654   -9197.5547    784.58091    9.2231494    9.2231494    9.2231494    27.511243 
   20500    292.67549   -10463.801            0   -9592.2635    -4557.021    784.33785    9.2221969    9.2221969    9.2221969    30.698828 
   20600    297.73253   -10476.405            0   -9589.8085    6464.4514    783.95859    9.2207102    9.2207102    9.2207102    36.396102 
   20700    302.72931    -10488.28            0   -9586.8042    6326.5054     783.9021    9.2204887    9.2204887    9.2204887    39.126613 
   20800    305.76681   -10496.089            0   -9585.5673    3449.8915    784.29589    9.2220325    9.2220325    9.2220325    35.200028 
   20900    297.36768   -10470.745            0    -9585.235    4935.2855    784.80746    9.2240371    9.2240371    9.2240371    46.416315 
   21000     299.3889   -10477.442            0   -9585.9125    -902.1341    785.02807    9.2249013    9.2249013    9.2249013    36.664534 
Loop time of 27.6306 on 16 procs for 1000 steps with 1000 atoms

Performance: 3.127 ns/day, 7.675 hours/ns, 36.192 timesteps/s
94.4% CPU use with 16 MPI tasks x no OpenMP threads

MPI task timing breakdown:
Section |  min time  |  avg time  |  max time  |%varavg| %total
---------------------------------------------------------------
Pair    | 2.415      | 2.6153     | 2.7954     |   7.9 |  9.47
Neigh   | 0.79607    | 0.85846    | 0.89653    |   3.9 |  3.11
Comm    | 0.66287    | 0.88255    | 1.1445     |  17.3 |  3.19
Output  | 15.865     | 16.328     | 23.137     |  43.5 | 59.10
Modify  | 0.13026    | 6.9372     | 7.4021     |  66.7 | 25.11
Other   |            | 0.008632   |            |       |  0.03

Nlocal:    62.5 ave 68 max 58 min
Histogram: 1 2 1 0 3 4 3 0 1 1
Nghost:    1853.88 ave 1878 max 1830 min
Histogram: 1 1 4 1 1 1 4 0 2 1
Neighs:    0 ave 0 max 0 min
Histogram: 16 0 0 0 0 0 0 0 0 0
FullNghs:  18792.6 ave 20597 max 17318 min
Histogram: 3 0 1 2 3 3 2 1 0 1

Total # of neighbors = 300682
Ave neighs/atom = 300.682
Neighbor list builds = 1000
Dangerous builds not checked
Setting up Verlet run ...
  Unit style    : real
  Current step  : 21000
  Time step     : 1
Per MPI rank memory allocation (min/avg/max) = 4.577 | 4.578 | 4.58 Mbytes
Step Temp E_pair E_mol TotEng Press Volume Lx Ly Lz S/CPU 
   21000     299.3889   -10477.442            0   -9585.9125    -902.1341    785.02807    9.2249013    9.2249013    9.2249013            0 
   21100    300.58021   -10481.609            0   -9586.5326   -10112.238    785.00077    9.2247944    9.2247944    9.2247944    34.613938 
   21200    305.09023   -10495.329            0   -9586.8228    1840.4568    784.68669    9.2235639    9.2235639    9.2235639    30.401319 
   21300    296.09363   -10469.309            0   -9587.5927   -7045.9649     784.0015    9.2208785    9.2208785    9.2208785    40.044099 
   21400    301.40369   -10487.651            0   -9590.1227   -11509.196    782.58657     9.215328     9.215328     9.215328     34.11897 
   21500    310.06406   -10514.425            0   -9591.1067    388.51753    780.54284     9.207299     9.207299     9.207299    31.479388 
   21600    300.70854   -10488.256            0   -9592.7973    13389.342    778.52414    9.1993546    9.1993546    9.1993546      24.5806 
   21700    294.95698   -10472.389            0   -9594.0573   -7623.7551    776.76569    9.1924232    9.1924232    9.1924232    33.093336 
   21800    301.05062   -10492.069            0   -9595.5917    16013.314    775.36367    9.1868893    9.1868893    9.1868893     32.07186 
   21900    288.95766   -10459.773            0   -9599.3066    22272.907    775.11847    9.1859208    9.1859208    9.1859208     30.05696 
   22000    300.92574   -10499.072            0   -9602.9661   -9859.7836    776.09857    9.1897909    9.1897909    9.1897909    27.562522 
Loop time of 31.9464 on 16 procs for 1000 steps with 1000 atoms

Performance: 2.705 ns/day, 8.874 hours/ns, 31.302 timesteps/s
94.3% CPU use with 16 MPI tasks x no OpenMP threads

MPI task timing breakdown:
Section |  min time  |  avg time  |  max time  |%varavg| %total
---------------------------------------------------------------
Pair    | 2.3335     | 2.6377     | 2.956      |  10.5 |  8.26
Neigh   | 0.78183    | 0.85744    | 0.93012    |   4.9 |  2.68
Comm    | 0.58957    | 0.97506    | 1.3548     |  21.8 |  3.05
Output  | 18.985     | 19.522     | 27.283     |  45.4 | 61.11
Modify  | 0.18401    | 7.9455     | 8.4824     |  71.1 | 24.87
Other   |            | 0.008663   |            |       |  0.03

Nlocal:    62.5 ave 65 max 55 min
Histogram: 1 0 0 0 1 2 1 1 1 9
Nghost:    1868.94 ave 1888 max 1846 min
Histogram: 1 1 2 2 0 3 2 0 2 3
Neighs:    0 ave 0 max 0 min
Histogram: 16 0 0 0 0 0 0 0 0 0
FullNghs:  19008.1 ave 20049 max 16654 min
Histogram: 1 0 0 0 3 1 1 1 6 3

Total # of neighbors = 304130
Ave neighs/atom = 304.13
Neighbor list builds = 1000
Dangerous builds not checked
Setting up Verlet run ...
  Unit style    : real
  Current step  : 22000
  Time step     : 1
Per MPI rank memory allocation (min/avg/max) = 4.577 | 4.578 | 4.58 Mbytes
Step Temp E_pair E_mol TotEng Press Volume Lx Ly Lz S/CPU 
   22000    300.92574   -10499.072            0   -9602.9661   -9859.7836    776.09857    9.1897909    9.1897909    9.1897909            0 
   22100    299.70875   -10500.455            0   -9607.9734     500.1964    777.59473    9.1956924    9.1956924    9.1956924     29.46156 
   22200    296.17353   -10495.028            0   -9613.0735    6466.2527     779.4515    9.2030059    9.2030059    9.2030059    30.856507 
   22300    304.92483   -10528.541            0   -9620.5274   -5582.8195     781.6559    9.2116735    9.2116735    9.2116735      29.7527 
   22400    302.38099    -10529.37            0   -9628.9314   -2199.5223    783.93849    9.2206314    9.2206314    9.2206314    30.102393 
   22500     293.4795    -10511.92            0    -9637.988   -6841.2453    786.14505    9.2292745    9.2292745    9.2292745    30.619114 
   22600    292.93627   -10521.595            0   -9649.2807    -5220.795    787.82052    9.2358264    9.2358264    9.2358264    27.528686 
   22700      293.813   -10536.734            0   -9661.8095   -9370.9605    788.65389    9.2390819    9.2390819    9.2390819    39.548669 
   22800    283.98576   -10517.563            0    -9671.902   -21042.756    788.82769    9.2397605    9.2397605    9.2397605     34.53759 
   22900    289.71441   -10542.174            0   -9679.4542   -1932.8414     788.3499    9.2378946    9.2378946    9.2378946    39.238234 
   23000    289.74029   -10547.124            0   -9684.3273   -17840.844    787.35769    9.2340175    9.2340175    9.2340175    42.313597 
Loop time of 30.5524 on 16 procs for 1000 steps with 1000 atoms

Performance: 2.828 ns/day, 8.487 hours/ns, 32.731 timesteps/s
94.3% CPU use with 16 MPI tasks x no OpenMP threads

MPI task timing breakdown:
Section |  min time  |  avg time  |  max time  |%varavg| %total
---------------------------------------------------------------
Pair    | 2.3053     | 2.5804     | 2.7918     |   8.0 |  8.45
Neigh   | 0.77514    | 0.8505     | 0.90778    |   4.4 |  2.78
Comm    | 0.57566    | 0.84558    | 1.196      |  18.2 |  2.77
Output  | 18.151     | 18.654     | 26.151     |  44.8 | 61.06
Modify  | 0.11619    | 7.6134     | 8.1171     |  70.2 | 24.92
Other   |            | 0.008598   |            |       |  0.03

Nlocal:    62.5 ave 67 max 57 min
Histogram: 2 0 0 4 1 0 1 3 2 3
Nghost:    1855.12 ave 1866 max 1843 min
Histogram: 2 2 0 3 0 0 3 3 1 2
Neighs:    0 ave 0 max 0 min
Histogram: 16 0 0 0 0 0 0 0 0 0
FullNghs:  18751.1 ave 20105 max 17014 min
Histogram: 2 0 0 5 0 0 1 4 2 2

Total # of neighbors = 300018
Ave neighs/atom = 300.018
Neighbor list builds = 1000
Dangerous builds not checked
Setting up Verlet run ...
  Unit style    : real
  Current step  : 23000
  Time step     : 1
Per MPI rank memory allocation (min/avg/max) = 4.577 | 4.578 | 4.58 Mbytes
Step Temp E_pair E_mol TotEng Press Volume Lx Ly Lz S/CPU 
   23000    289.74029   -10547.124            0   -9684.3273   -17840.844    787.35769    9.2340175    9.2340175    9.2340175            0 
   23100     286.9127   -10540.056            0   -9685.6785    -5923.295    785.70667    9.2275586    9.2275586    9.2275586     45.98136 
   23200    286.44104   -10537.402            0   -9684.4293   -15877.296    783.89871    9.2204755    9.2204755    9.2204755    36.832952 
   23300    288.26336   -10538.556            0   -9680.1569    2908.6909    781.92991    9.2127498    9.2127498    9.2127498    40.337574 
   23400    282.22923   -10511.902            0   -9671.4717    6447.4156    779.94946    9.2049653    9.2049653    9.2049653    39.563056 
   23500    290.78274   -10526.522            0   -9660.6209   -8664.9954    778.05694    9.1975141    9.1975141    9.1975141    46.129706 
   23600    296.26018   -10529.916            0   -9647.7035   -4352.8894    776.23728    9.1903383    9.1903383    9.1903383    33.569664 
   23700    300.68509   -10529.184            0   -9633.7954    9583.9845    774.66999    9.1841488    9.1841488    9.1841488    46.227756 
   23800    305.12803   -10531.318            0   -9622.6988    4668.5986     773.4921    9.1794916    9.1794916    9.1794916    51.061549 
   23900    306.32624   -10527.162            0   -9614.9748    9728.5895     773.0323    9.1776723    9.1776723    9.1776723    32.992176 
   24000    293.71384   -10485.557            0   -9610.9274    17462.905    773.59003    9.1798789    9.1798789    9.1798789    41.666791 
Loop time of 24.5958 on 16 procs for 1000 steps with 1000 atoms

Performance: 3.513 ns/day, 6.832 hours/ns, 40.657 timesteps/s
94.5% CPU use with 16 MPI tasks x no OpenMP threads

MPI task timing breakdown:
Section |  min time  |  avg time  |  max time  |%varavg| %total
---------------------------------------------------------------
Pair    | 2.3557     | 2.6212     | 2.9483     |  10.0 | 10.66
Neigh   | 0.76698    | 0.85103    | 0.92938    |   4.9 |  3.46
Comm    | 0.49664    | 0.90084    | 1.2511     |  21.8 |  3.66
Output  | 14.013     | 14.397     | 20.095     |  38.8 | 58.53
Modify  | 0.11929    | 5.8172     | 6.2006     |  61.0 | 23.65
Other   |            | 0.008612   |            |       |  0.04

Nlocal:    62.5 ave 69 max 56 min
Histogram: 1 2 1 1 1 2 6 0 1 1
Nghost:    1872.12 ave 1895 max 1852 min
Histogram: 2 4 0 1 1 0 5 0 1 2
Neighs:    0 ave 0 max 0 min
Histogram: 16 0 0 0 0 0 0 0 0 0
FullNghs:  19073.2 ave 21136 max 17026 min
Histogram: 1 1 3 0 1 3 5 0 1 1

Total # of neighbors = 305172
Ave neighs/atom = 305.172
Neighbor list builds = 1000
Dangerous builds not checked
Setting up Verlet run ...
  Unit style    : real
  Current step  : 24000
  Time step     : 1
Per MPI rank memory allocation (min/avg/max) = 4.577 | 4.578 | 4.58 Mbytes
Step Temp E_pair E_mol TotEng Press Volume Lx Ly Lz S/CPU 
   24000    293.71384   -10485.557            0   -9610.9274    17462.905    773.59003    9.1798789    9.1798789    9.1798789            0 
   24100    295.22274   -10487.605            0   -9608.4823     26491.76    775.20756    9.1862727    9.1862727    9.1862727    35.918305 
   24200    293.50217   -10481.532            0   -9607.5322    1497.1134    778.17547    9.1979811    9.1979811    9.1979811    35.391249 
   24300     293.8128   -10480.757            0   -9605.8325   -5224.3711    781.51476    9.2111191    9.2111191    9.2111191    39.510091 
   24400    291.24034   -10471.155            0   -9603.8912   -3115.9811     784.4965    9.2228187    9.2228187    9.2228187    41.953528 
   24500    290.52116   -10467.601            0   -9602.4785   -3004.6148    786.81421    9.2318924    9.2318924    9.2318924    37.015446 
   24600    301.42068   -10499.367            0   -9601.7873   -24226.849    788.10681    9.2369451    9.2369451    9.2369451    40.198583 
   24700    306.75215   -10513.555            0   -9600.0995   -9286.5507    788.30334    9.2377128    9.2377128    9.2377128    37.582232 
   24800    294.86928   -10477.581            0   -9599.5102   -8371.7472    787.82258    9.2358345    9.2358345    9.2358345    33.609094 
   24900    298.33037   -10486.617            0   -9598.2401   -12011.057    786.78583    9.2317813    9.2317813    9.2317813    44.121443 
   25000    306.72207   -10511.281            0   -9597.9146   -5540.4978    785.08268    9.2251152    9.2251152    9.2251152    40.154656 
Loop time of 26.1065 on 16 procs for 1000 steps with 1000 atoms

Performance: 3.310 ns/day, 7.252 hours/ns, 38.305 timesteps/s
94.4% CPU use with 16 MPI tasks x no OpenMP threads

MPI task timing breakdown:
Section |  min time  |  avg time  |  max time  |%varavg| %total
---------------------------------------------------------------
Pair    | 2.3227     | 2.5909     | 2.9005     |   9.8 |  9.92
Neigh   | 0.77353    | 0.85073    | 0.92601    |   4.7 |  3.26
Comm    | 0.48506    | 0.87187    | 1.2164     |  21.5 |  3.34
Output  | 15.046     | 15.464     | 21.632     |  40.5 | 59.23
Modify  | 0.15669    | 6.3208     | 6.7395     |  63.3 | 24.21
Other   |            | 0.008577   |            |       |  0.03

Nlocal:    62.5 ave 68 max 57 min
Histogram: 1 3 1 2 1 2 2 0 1 3
Nghost:    1853.56 ave 1861 max 1842 min
Histogram: 1 0 0 0 3 4 4 1 2 1
Neighs:    0 ave 0 max 0 min
Histogram: 16 0 0 0 0 0 0 0 0 0
FullNghs:  18783.1 ave 20439 max 17138 min
Histogram: 1 3 1 1 2 2 2 0 3 1

Total # of neighbors = 300530
Ave neighs/atom = 300.53
Neighbor list builds = 1000
Dangerous builds not checked
Setting up Verlet run ...
  Unit style    : real
  Current step  : 25000
  Time step     : 1
Per MPI rank memory allocation (min/avg/max) = 4.577 | 4.578 | 4.58 Mbytes
Step Temp E_pair E_mol TotEng Press Volume Lx Ly Lz S/CPU 
   25000    306.72207   -10511.281            0   -9597.9146   -5540.4978    785.08268    9.2251152    9.2251152    9.2251152            0 
   25100     297.6598   -10480.691            0    -9594.311   -3559.2245    783.20465    9.2177534    9.2177534    9.2177534    36.796595 
   25200    306.66039   -10504.857            0   -9591.6752    14957.111    781.56326    9.2113096    9.2113096    9.2113096    44.967078 
   25300    296.35413   -10470.084            0   -9587.5921    -1872.796    780.41977    9.2068151    9.2068151    9.2068151    30.628714 
   25400    298.78042   -10472.618            0   -9582.9006     13235.81    779.50754    9.2032264    9.2032264    9.2032264    53.531473 
   25500    310.94481   -10506.678            0   -9580.7372    3638.6113    779.18427     9.201954     9.201954     9.201954    39.430114 
   25600    312.11316   -10507.428            0   -9578.0083    15646.605     779.3457    9.2025894    9.2025894    9.2025894    43.119925 
   25700    299.96147   -10468.891            0   -9575.6573    21710.147    780.48591    9.2070752    9.2070752    9.2070752    44.087066 
   25800     302.9309   -10477.408            0   -9575.3311    3684.4526    782.50261    9.2149984    9.2149984    9.2149984    36.860654 
   25900    303.13748   -10479.586            0    -9576.894   -886.11022    784.95554    9.2246172    9.2246172    9.2246172    36.619892 
   26000    303.68371   -10483.309            0   -9578.9911   -7268.3923    787.48046    9.2344974    9.2344974    9.2344974     36.82627 
Loop time of 25.3571 on 16 procs for 1000 steps with 1000 atoms

Performance: 3.407 ns/day, 7.044 hours/ns, 39.437 timesteps/s
94.5% CPU use with 16 MPI tasks x no OpenMP threads

MPI task timing breakdown:
Section |  min time  |  avg time  |  max time  |%varavg| %total
---------------------------------------------------------------
Pair    | 2.3768     | 2.5638     | 2.941      |  10.4 | 10.11
Neigh   | 0.77216    | 0.84104    | 0.94029    |   5.4 |  3.32
Comm    | 0.41314    | 0.89191    | 1.1469     |  22.9 |  3.52
Output  | 14.454     | 14.864     | 20.958     |  40.8 | 58.62
Modify  | 0.095237   | 6.1878     | 6.5992     |  63.2 | 24.40
Other   |            | 0.008522   |            |       |  0.03

Nlocal:    62.5 ave 67 max 58 min
Histogram: 1 1 2 3 1 3 1 1 1 2
Nghost:    1852.38 ave 1869 max 1838 min
Histogram: 2 0 3 5 1 1 0 0 1 3
Neighs:    0 ave 0 max 0 min
Histogram: 16 0 0 0 0 0 0 0 0 0
FullNghs:  18738 ave 20183 max 17218 min
Histogram: 1 2 1 2 2 2 2 1 0 3

Total # of neighbors = 299808
Ave neighs/atom = 299.808
Neighbor list builds = 1000
Dangerous builds not checked
Setting up Verlet run ...
  Unit style    : real
  Current step  : 26000
  Time step     : 1
Per MPI rank memory allocation (min/avg/max) = 4.577 | 4.578 | 4.58 Mbytes
Step Temp E_pair E_mol TotEng Press Volume Lx Ly Lz S/CPU 
   26000    303.68371   -10483.309            0   -9578.9911   -7268.3923    787.48046    9.2344974    9.2344974    9.2344974            0 
   26100    299.87316   -10474.914            0   -9581.9425   -10831.277     789.4921     9.242354     9.242354     9.242354    35.278643 
   26200    298.56397   -10474.373            0   -9585.3005   -14601.331    790.70132    9.2470702    9.2470702    9.2470702    37.234494 
   26300    300.84754   -10485.063            0   -9589.1907   -2941.0612     791.3162    9.2494665    9.2494665    9.2494665    35.855796 
   26400     296.6277   -10477.964            0   -9594.6573   -20311.003     791.6251    9.2506699    9.2506699    9.2506699    45.430962 
   26500    300.47574   -10495.968            0   -9601.2024    28.873957    791.18257    9.2489459    9.2489459    9.2489459    43.923925 
   26600    293.16886   -10480.504            0   -9607.4969   -3828.6014    790.21891    9.2451893    9.2451893    9.2451893    38.424175 
   26700    292.69679    -10484.85            0   -9613.2489   -10504.483     788.6209    9.2389531    9.2389531    9.2389531    41.678429 
   26800     297.5185   -10506.234            0   -9620.2745    3294.4591    786.36027    9.2301166    9.2301166    9.2301166    38.340106 
   26900    303.86853   -10532.944            0   -9628.0751    3195.7173    784.24362    9.2218276    9.2218276    9.2218276    46.306465 
   27000    296.32234   -10516.406            0   -9634.0086    2764.8071       782.24    9.2139674    9.2139674    9.2139674    37.659532 
Loop time of 25.212 on 16 procs for 1000 steps with 1000 atoms

Performance: 3.427 ns/day, 7.003 hours/ns, 39.664 timesteps/s
94.4% CPU use with 16 MPI tasks x no OpenMP threads

MPI task timing breakdown:
Section |  min time  |  avg time  |  max time  |%varavg| %total
---------------------------------------------------------------
Pair    | 2.3461     | 2.5511     | 2.7945     |   7.9 | 10.12
Neigh   | 0.79467    | 0.84803    | 0.91506    |   4.3 |  3.36
Comm    | 0.58946    | 0.8963     | 1.1574     |  17.3 |  3.56
Output  | 14.86      | 15.229     | 20.699     |  36.2 | 60.41
Modify  | 0.22848    | 5.6785     | 6.051      |  59.1 | 22.52
Other   |            | 0.00872    |            |       |  0.03

Nlocal:    62.5 ave 71 max 56 min
Histogram: 1 0 4 3 1 3 2 0 1 1
Nghost:    1856.31 ave 1889 max 1831 min
Histogram: 1 3 1 2 1 4 2 1 0 1
Neighs:    0 ave 0 max 0 min
Histogram: 16 0 0 0 0 0 0 0 0 0
FullNghs:  18882.9 ave 21475 max 16730 min
Histogram: 1 0 4 3 1 3 2 0 1 1

Total # of neighbors = 302126
Ave neighs/atom = 302.126
Neighbor list builds = 1000
Dangerous builds not checked
Setting up Verlet run ...
  Unit style    : real
  Current step  : 27000
  Time step     : 1
Per MPI rank memory allocation (min/avg/max) = 4.577 | 4.578 | 4.58 Mbytes
Step Temp E_pair E_mol TotEng Press Volume Lx Ly Lz S/CPU 
   27000    296.32234   -10516.406            0   -9634.0086    2764.8071       782.24    9.2139674    9.2139674    9.2139674            0 
   27100    298.58081   -10529.707            0   -9640.5841    3359.6374    780.56178    9.2073735    9.2073735    9.2073735    44.663411 
   27200     297.0804   -10532.748            0   -9648.0937    6280.4893    778.92464    9.2009318    9.2009318    9.2009318    46.118845 
   27300    300.21925   -10548.875            0   -9654.8734   -5788.2774    777.31472    9.1945885    9.1945885    9.1945885    38.248949 
   27400    305.25971   -10571.531            0   -9662.5193    5637.2412    775.59278    9.1877941    9.1877941    9.1877941    41.658695 
   27500    290.99466   -10534.381            0    -9667.849   -4287.9671    774.23301    9.1824216    9.1824216    9.1824216     33.78284 
   27600    290.69318   -10539.951            0   -9674.3168    18532.467    773.25339    9.1785472    9.1785472    9.1785472    40.376641 
   27700    287.98354   -10536.854            0   -9679.2882     21416.33    773.29178    9.1786991    9.1786991    9.1786991     44.38771 
   27800    289.67103   -10546.141            0   -9683.5506    4084.4806    774.30843    9.1827197    9.1827197    9.1827197    33.655956 
   27900    287.62724   -10544.005            0   -9687.5006    7665.9209    775.88756    9.1889579    9.1889579    9.1889579     30.78937 
   28000     291.1258   -10554.472            0   -9687.5493   -14816.734    777.89908     9.196892     9.196892     9.196892    37.575008 
Loop time of 25.9923 on 16 procs for 1000 steps with 1000 atoms

Performance: 3.324 ns/day, 7.220 hours/ns, 38.473 timesteps/s
[...]
  210700    301.08881   -11269.968            0   -10373.377    23082.208    738.33092    9.0382362    9.0382362    9.0382362    39.604082 
  210800    296.88612   -11257.897            0   -10373.821    3684.6189    738.69953      9.03974      9.03974      9.03974    43.010472 
  210900    310.75368    -11299.95            0   -10374.579      7443.44     739.6629     9.043668     9.043668     9.043668    42.265477 
  211000    298.99631   -11264.436            0   -10374.076   -8297.6383    741.14694    9.0497123    9.0497123    9.0497123    38.161444 
  211100    298.38235   -11262.033            0   -10373.501   -12185.719    742.60044    9.0556244    9.0556244    9.0556244    33.015181 
  211200    296.40945   -11254.707            0   -10372.051    730.03477    743.84135    9.0606657    9.0606657    9.0606657    46.213636 
  211300    293.88607   -11246.444            0   -10371.302   -11879.683      744.895    9.0649418    9.0649418    9.0649418     27.27193 
  211400    299.38287   -11263.657            0   -10372.146   -14637.916    745.28592    9.0665273    9.0665273    9.0665273    33.795103 
  211500    295.47806    -11251.22            0   -10371.337   -13400.457    745.18582    9.0661214    9.0661214    9.0661214    31.230544 
  211600    288.19049   -11228.615            0   -10370.433   -5510.3138    744.41312    9.0629866    9.0629866    9.0629866    36.912584 
  211700    293.69964   -11244.524            0   -10369.937    6594.2603    743.27803    9.0583779    9.0583779    9.0583779     36.05268 
  211800    296.51318   -11251.906            0    -10368.94    5251.4673    742.28925    9.0543593    9.0543593    9.0543593    38.817368 
  211900    303.85366   -11273.887            0   -10369.063    13954.517     741.9799    9.0531013    9.0531013    9.0531013    46.929313 
  212000    302.38013   -11267.682            0   -10367.245    12282.219    742.43354    9.0549459    9.0549459    9.0549459    35.667759 
  212100    295.99392   -11247.599            0    -10366.18    4689.5931    743.56516    9.0595441    9.0595441    9.0595441    43.337014 
  212200    283.50187     -11209.4            0    -10365.18    5503.6501    744.95826    9.0651984    9.0651984    9.0651984    37.505716 
  212300    302.26206   -11266.334            0   -10366.249   -18857.892    746.29922    9.0706344    9.0706344    9.0706344    46.283405 
  212400    302.86072   -11268.081            0   -10366.213   -12984.494    746.78598     9.072606     9.072606     9.072606    33.352339 
  212500    301.17723   -11261.568            0   -10364.713   -11724.396    746.41927    9.0711207    9.0711207    9.0711207    34.630601 
  212600    296.71757   -11247.193            0   -10363.618   -7938.4172    745.52467    9.0674953    9.0674953    9.0674953    33.474114 
  212700    307.76957   -11280.736            0   -10364.251   -984.34882    744.43001    9.0630552    9.0630552    9.0630552    49.313451 
  212800    299.56878   -11256.636            0   -10364.571    12284.593    743.35408    9.0586868    9.0586868    9.0586868    34.622849 
  212900    294.47968   -11240.599            0   -10363.689    1443.5179    742.55161    9.0554259    9.0554259    9.0554259    38.889291 
  213000     304.0755   -11270.783            0   -10365.298   -8803.6195    742.02533    9.0532861    9.0532861    9.0532861    38.279866 
  213100    315.08888   -11306.695            0   -10368.414    6033.5688    741.23461    9.0500691    9.0500691    9.0500691    47.452095 
  213200    303.25548    -11274.04            0   -10370.997    14535.557    740.68329    9.0478248    9.0478248    9.0478248    42.347172 
  213300    312.57116   -11307.841            0   -10377.057    5125.8709    740.57902    9.0474002    9.0474002    9.0474002    37.719141 
  213400    295.89657   -11265.457            0   -10384.328    8241.9686    740.65454    9.0477077    9.0477077    9.0477077    39.761543 
  213500    304.88532   -11305.113            0   -10397.217    5488.6056    740.97322    9.0490052    9.0490052    9.0490052    31.001888 
  213600    291.09441   -11276.341            0   -10409.511   -2661.5269    741.27186    9.0502207    9.0502207    9.0502207     42.65199 
  213700    291.53047   -11290.463            0   -10422.335    10755.951    741.51762    9.0512208    9.0512208    9.0512208    37.848198 
  213800    294.05426   -11307.788            0   -10432.145   -4034.5389    741.88443     9.052713     9.052713     9.052713    42.536248 
  213900    294.84466   -11317.274            0   -10439.277    1197.9326    742.22173    9.0540847    9.0540847    9.0540847    38.450056 
  214000    287.91725   -11300.735            0   -10443.367   -6846.2802     742.4501    9.0550132    9.0550132    9.0550132     33.37559 
  214100    288.50212   -11304.098            0   -10444.988   -2384.0557    742.30732    9.0544327    9.0544327    9.0544327     50.09419 
  214200    283.60191   -11288.257            0   -10443.739   -1635.5421    741.80935    9.0524076    9.0524076    9.0524076    32.556683 
  214300    287.84297   -11298.698            0   -10441.551    2986.6529    741.19637    9.0499135    9.0499135    9.0499135    46.147449 
  214400    291.13287   -11303.296            0   -10436.352    7970.7652    740.76117    9.0481419    9.0481419    9.0481419    36.298534 
  214500    287.73987    -11286.31            0    -10429.47   -1618.3575    740.84585    9.0484867    9.0484867    9.0484867      39.6422 
  214600    294.94021   -11299.055            0   -10420.774    6012.2874    741.36427    9.0505968    9.0505968    9.0505968    47.743218 
  214700     294.7077   -11288.657            0   -10411.068    19033.368    742.23599    9.0541427    9.0541427    9.0541427     37.31393 
  214800    299.33156   -11291.672            0   -10400.314    10213.803    743.26707    9.0583333    9.0583333    9.0583333    50.354445 
  214900    298.31132   -11277.554            0   -10389.234   -3967.0913    744.13168    9.0618443    9.0618443    9.0618443    36.664795 
  215000    305.91076   -11291.545            0   -10380.595   -3103.1396    744.68225    9.0640787    9.0640787    9.0640787    42.767766 
  215100    292.24309    -11241.16            0    -10370.91    3349.5003     744.9132    9.0650156    9.0650156    9.0650156    44.745014 
  215200    304.86787   -11274.461            0   -10366.617   -2824.2192    745.04263    9.0655406    9.0655406    9.0655406    31.526346 
  215300    310.30964   -11287.366            0   -10363.317   -3637.0956    745.01894    9.0654445    9.0654445    9.0654445    44.089536 
  215400    303.60877   -11265.446            0   -10361.351   -2557.2311    744.50854    9.0633739    9.0633739    9.0633739     40.77438 
  215500    299.35797   -11250.599            0   -10359.163   -11556.085    743.80516    9.0605187    9.0605187    9.0605187    41.356349 
  215600    304.52274   -11263.896            0   -10357.079   -6793.8093    742.97289    9.0571381    9.0571381    9.0571381    40.875251 
  215700    296.26151   -11237.024            0   -10354.808    7800.4532    742.22942     9.054116     9.054116     9.054116    40.244473 
  215800    315.07944   -11293.085            0   -10354.832   -2032.9018    741.74769    9.0521568    9.0521568    9.0521568    45.336054 
  215900    309.53945   -11277.589            0   -10355.833     15863.05    741.56723    9.0514226    9.0514226    9.0514226    30.908391 
  216000     312.2445   -11285.452            0   -10355.641    9471.3114    742.03784    9.0533369    9.0533369    9.0533369    46.781275 
  216100     303.9588   -11262.912            0   -10357.774    20211.582    742.98356    9.0571814    9.0571814    9.0571814    35.943949 
  216200    310.24916   -11285.404            0   -10361.535   -2883.4927    744.58166    9.0636706    9.0636706    9.0636706    35.490247 
  216300    300.73434   -11259.556            0   -10364.021   -13883.182    746.23293    9.0703658    9.0703658    9.0703658    32.820606 
  216400     309.8288   -11293.457            0    -10370.84   -19591.299    747.04115    9.0736393    9.0736393    9.0736393    43.943067 
  216500    298.82829   -11265.845            0   -10375.986   -19500.556     747.0321    9.0736026    9.0736026    9.0736026    37.299913 
  216600    301.27826   -11281.101            0   -10383.946   -5145.6992    746.14682    9.0700169    9.0700169    9.0700169    41.123594 
  216700    299.27995   -11284.839            0   -10393.634    -16224.09    744.35242    9.0627403    9.0627403    9.0627403    47.741152 
  216800     293.2628   -11274.337            0    -10401.05   -566.62656    741.83369    9.0525066    9.0525066    9.0525066    44.843178 
  216900     302.6556   -11313.667            0    -10412.41    9733.8785    739.41361    9.0426519    9.0426519    9.0426519    41.735935 
  217000    291.25775   -11289.898            0   -10422.582    13939.849    737.82085    9.0361544    9.0361544    9.0361544    46.373982 
  217100    298.61376   -11321.982            0   -10432.761     9724.912    736.95603    9.0326225    9.0326225    9.0326225    35.352394 
  217200    292.04694   -11310.711            0   -10441.045    24340.512    737.04995    9.0330062    9.0330062    9.0330062     44.24173 
  217300    289.62505   -11310.014            0   -10447.561    4889.8418    738.25016    9.0379066    9.0379066    9.0379066    34.639374 
  217400    301.04322   -11350.436            0   -10453.981    7558.9771    740.25736    9.0460901    9.0460901    9.0460901    41.865165 
  217500    287.82478   -11311.112            0   -10454.019   -10677.631    742.82183    9.0565242    9.0565242    9.0565242    40.730684 
  217600    285.81947   -11304.854            0   -10453.732   -16990.009     745.3643    9.0668451    9.0668451    9.0668451    37.219213 
  217700    281.06678   -11287.169            0     -10450.2    -23275.83    747.28703    9.0746346    9.0746346    9.0746346    49.568263 
  217800    287.49104   -11301.833            0   -10445.734   -30905.685    747.91304    9.0771679    9.0771679    9.0771679    34.839936 
  217900    292.20281   -11307.761            0   -10437.631   -4669.0652    747.10312    9.0738901    9.0738901    9.0738901    44.016307 
  218000    291.59334   -11295.778            0   -10427.462   -9953.4209    745.24687    9.0663689    9.0663689    9.0663689    48.123473 
  218100    288.89691   -11276.923            0   -10416.637     2414.721    742.92743    9.0569534    9.0569534    9.0569534    36.837124 
  218200    284.99651   -11255.831            0   -10407.161     1240.285    740.45198    9.0468828    9.0468828    9.0468828    39.611698 
  218300    287.33596   -11255.159            0   -10399.521    15661.125    738.25457    9.0379246    9.0379246    9.0379246    39.403372 
  218400    303.85007   -11301.115            0   -10396.302    19522.249    736.96374     9.032654     9.032654     9.032654    44.431349 
  218500     283.9081   -11237.369            0   -10391.939   -642.19515    736.90844     9.032428     9.032428     9.032428    46.792089 
  218600    286.04977   -11240.881            0   -10389.074    8252.5652    737.77723    9.0359763    9.0359763    9.0359763    27.440783 
  218700    296.13239    -11269.55            0   -10387.719    9788.6973    739.54676    9.0431947    9.0431947    9.0431947    42.596305 
  218800    301.81803   -11282.822            0   -10384.059    4067.2216    741.79459    9.0523476    9.0523476    9.0523476    39.523825 
  218900     297.3578   -11263.839            0   -10378.358    542.48609    744.22945    9.0622412    9.0622412    9.0622412    41.183118 
  219000    298.96084   -11263.981            0   -10373.726   -22991.685    746.40516    9.0710636    9.0710636    9.0710636    41.741647 
  219100    305.78719   -11279.622            0    -10369.04    -20647.24    747.59727    9.0758902    9.0758902    9.0758902    32.595703 
  219200    299.94713   -11255.562            0    -10362.37   -15058.765    747.95054    9.0773196    9.0773196    9.0773196    40.983289 
  219300      308.829   -11276.251            0   -10356.611   -17858.375    747.38959    9.0750498    9.0750498    9.0750498    37.468575 
  219400    294.11491   -11226.028            0   -10350.204   -8233.4547    745.82602    9.0687169    9.0687169    9.0687169    41.761002 
  219500    301.56844   -11243.307            0   -10345.288    5562.8104    743.73806    9.0602463    9.0602463    9.0602463    34.312615 
  219600      305.606   -11250.893            0   -10340.851    13494.868    741.67317    9.0518536    9.0518536    9.0518536    41.226267 
  219700    308.54703   -11254.277            0   -10335.477    23777.509     740.3503    9.0464687    9.0464687    9.0464687    44.825482 
  219800    301.85538   -11229.585            0   -10330.711    23035.493    739.80402    9.0442431    9.0442431    9.0442431    39.956874 
  219900    304.42912   -11234.293            0   -10327.755    2801.2322    740.24366    9.0460344    9.0460344    9.0460344    39.401781 
  220000    303.79077    -11228.93            0   -10324.293    8639.5071     741.1139    9.0495778    9.0495778    9.0495778    36.618325 
  220100    304.91744    -11231.42            0   -10323.427    10297.487    742.29143    9.0543682    9.0543682    9.0543682    45.483874 
  220200    294.87576   -11200.725            0   -10322.636   -9473.8991    743.68008    9.0600108    9.0600108    9.0600108    52.826491 
  220300    298.53847   -11210.996            0   -10321.999   -14163.637    745.16167    9.0660234    9.0660234    9.0660234    43.364649 
  220400    293.36442   -11194.473            0   -10320.884   -6741.8634    746.43732    9.0711939    9.0711939    9.0711939    43.462051 
  220500    293.84072   -11196.987            0    -10321.98   -8069.1251    747.21391    9.0743386    9.0743386    9.0743386    37.728691 
  220600    305.05259   -11230.889            0   -10322.494   -11492.421    747.41505    9.0751528    9.0751528    9.0751528    38.773743 
  220700    300.19348   -11218.971            0   -10325.046   -11699.347    747.02982    9.0735934    9.0735934    9.0735934    45.101753 
  220800    300.34679   -11223.065            0   -10328.684    -17451.71    745.99708    9.0694102    9.0694102    9.0694102    38.753569 
  220900     306.2426   -11245.183            0   -10333.245    784.13621    744.64905     9.063944     9.063944     9.063944    44.112159 
  221000    306.99732   -11253.263            0   -10339.077    11775.371    743.63159    9.0598139    9.0598139    9.0598139     38.89145 
  221100    301.65449   -11244.649            0   -10346.374   -2516.3512    743.04545    9.0574329    9.0574329    9.0574329    41.498318 
  221200    293.99209    -11229.45            0   -10353.992   -1659.5723     742.5277    9.0553287    9.0553287    9.0553287    31.294511 
  221300     299.6405    -11257.07            0   -10364.791    2605.8276     741.9588    9.0530155    9.0530155    9.0530155    37.640108 
  221400    285.88717   -11225.212            0   -10373.889     3589.999    741.62946    9.0516758    9.0516758    9.0516758    35.807289 
  221500    297.85669   -11271.655            0   -10384.689   -3412.4862    741.69875    9.0519577    9.0519577    9.0519577     40.52389 
  221600    288.17688   -11250.439            0   -10392.297    9378.3372    741.75009    9.0521666    9.0521666    9.0521666    44.368479 
  221700    292.96477   -11272.795            0   -10400.396    309.90862    741.74234     9.052135     9.052135     9.052135    34.823861 
  221800    298.74979    -11296.23            0   -10406.605    1868.0677    741.94721    9.0529683    9.0529683    9.0529683    38.453917 
  221900    297.19272   -11296.114            0   -10411.125   -7314.5815    742.26835    9.0542743    9.0542743    9.0542743      35.0371 
  222000    305.99178   -11326.004            0   -10414.813    -7775.918    742.19944    9.0539941    9.0539941    9.0539941    45.768259 
  222100    297.09034   -11300.214            0    -10415.53      10174.7    742.17666    9.0539015    9.0539015    9.0539015    46.672672 
  222200    283.79807   -11259.353            0   -10414.251    1120.6005    742.63409    9.0557612    9.0557612    9.0557612    38.694171 
  222300    296.10636   -11292.893            0   -10411.139   -9271.9751    743.05082    9.0574547    9.0574547    9.0574547    47.729185 
  222400    310.01783   -11331.209            0   -10408.029   -5027.2487     742.9833    9.0571804    9.0571804    9.0571804    37.720736 
  222500    296.02192   -11282.989            0   -10401.487   -6115.3287    742.80853    9.0564702    9.0564702    9.0564702    29.007202 
  222600    291.97356   -11262.552            0   -10393.105   -2116.0329    742.42788    9.0549229    9.0549229    9.0549229    46.868183 
  222700    301.26047   -11282.531            0   -10385.429    4151.2055    741.72861    9.0520792    9.0520792    9.0520792    40.299968 
  222800    299.31195   -11263.862            0   -10372.562   -211.51499    741.02667    9.0492228    9.0492228    9.0492228    44.780949 
  222900    300.81932   -11255.166            0   -10359.378    8763.6393     740.5792     9.047401     9.047401     9.047401    30.822625 
  223000    306.01502   -11257.303            0   -10346.042    4599.2691    740.75768    9.0481277    9.0481277    9.0481277    34.248202 
  223100    310.85741   -11259.305            0   -10333.625    2457.1198     741.3462    9.0505233    9.0505233    9.0505233    39.573094 
  223200    302.17693   -11225.964            0   -10326.132    13834.571    742.02413    9.0532812    9.0532812    9.0532812     46.69643 
  223300    305.58392   -11230.727            0    -10320.75    2508.7976    743.03856    9.0574049    9.0574049    9.0574049    34.381499 
  223400    303.41426   -11221.734            0   -10318.218   -4016.0145    744.33675    9.0626767    9.0626767    9.0626767    40.070875 
  223500    306.73587   -11231.534            0   -10318.127   -20303.507    745.71201    9.0682548    9.0682548    9.0682548    36.400393 
  223600    303.35376   -11221.604            0   -10318.268   -11510.005    746.54459    9.0716284    9.0716284    9.0716284    46.736426 
  223700    301.88856   -11221.296            0   -10322.323   -6755.3191    746.74642    9.0724458    9.0724458    9.0724458     42.95548 
  223800     315.3813   -11265.943            0   -10326.791   -11704.226    746.36505    9.0709011    9.0709011    9.0709011    31.196239 
  223900    307.23468   -11245.312            0   -10330.419   -11281.727    745.10565    9.0657962    9.0657962    9.0657962    40.357704 
  224000    309.25997   -11258.549            0   -10337.626    6713.7484    743.38831    9.0588258    9.0588258    9.0588258    39.925544 
Loop time of 2543.89 on 16 procs for 100000 steps with 1000 atoms

Performance: 3.396 ns/day, 7.066 hours/ns, 39.310 timesteps/s
94.5% CPU use with 16 MPI tasks x no OpenMP threads

MPI task timing breakdown:
Section |  min time  |  avg time  |  max time  |%varavg| %total
---------------------------------------------------------------
Pair    | 235.17     | 260.5      | 288.76     | 100.4 | 10.24
Neigh   | 78.435     | 86.8       | 95.956     |  61.9 |  3.41
Comm    | 62.414     | 99.89      | 133.33     | 219.8 |  3.93
Output  | 1424.2     | 1465.7     | 2079.7     | 414.1 | 57.62
Modify  | 16.613     | 630.14     | 671.56     | 631.1 | 24.77
Other   |            | 0.8707     |            |       |  0.03

Nlocal:    62.5 ave 72 max 57 min
Histogram: 2 1 5 1 3 1 1 0 1 1
Nghost:    1932.56 ave 1965 max 1897 min
Histogram: 2 1 1 0 2 3 3 0 3 1
Neighs:    0 ave 0 max 0 min
Histogram: 16 0 0 0 0 0 0 0 0 0
FullNghs:  19830.8 ave 23259 max 17986 min
Histogram: 2 4 1 4 1 2 0 0 1 1

Total # of neighbors = 317292
Ave neighs/atom = 317.292
Neighbor list builds = 100000
Dangerous builds not checked
Total wall time: 1:36:39
