LAMMPS (16 Mar 2018)
Reading data file ...
  orthogonal box = (-4.72806 -4.72806 -4.72806) to (4.72806 4.72806 4.72806)
  2 by 2 by 4 MPI processor grid
  reading atoms ...
  1000 atoms
Reading potential file /home/fs01/ajm529/lammps-16Mar18/potentials/sw_potentials/AG/eps2.23.sw with DATE: 2008-01-29
Neighbor list info ...
  update every 1 steps, delay 0 steps, check no
  max neighbors/atom: 2000, page size: 100000
  master list distance cutoff = 3.836
  ghost atom cutoff = 3.836
  binsize = 1.918, bins = 5 5 5
  1 neighbor lists, perpetual/occasional/extra = 1 0 0
  (1) pair sw, perpetual
      attributes: full, newton on
      pair build: full/bin/atomonly
      stencil: full/bin/3d
      bin: standard
Setting up Verlet run ...
  Unit style    : real
  Current step  : 0
  Time step     : 1
Per MPI rank memory allocation (min/avg/max) = 3.517 | 3.518 | 3.519 Mbytes
Step Temp E_pair E_mol TotEng Press Volume Lx Ly Lz S/CPU 
       0          300   -10010.096            0   -9116.7471   -30349.628    845.54918    9.4561196    9.4561196    9.4561196            0 
     100    343.22921   -10146.431            0   -9124.3529   -52020.864    843.72739    9.4493235    9.4493235    9.4493235    39.409678 
     200    340.20662   -10154.137            0   -9141.0595    -29497.19    838.35523    9.4292256    9.4292256    9.4292256    24.899472 
     300    342.73952   -10188.412            0   -9167.7925   -22262.916    830.68183     9.400369     9.400369     9.400369    27.904583 
     400    339.75269    -10206.85            0   -9195.1241    -5932.829    821.35101    9.3650392    9.3650392    9.3650392    27.902461 
     500    334.01275   -10210.713            0   -9216.0797   -11695.723    811.22056    9.3263774    9.3263774    9.3263774    32.550724 
     600    347.01735   -10270.002            0   -9236.6438    112.37415    801.77542    9.2900399    9.2900399    9.2900399    40.331239 
     700    328.38522   -10233.922            0   -9256.0464    23747.193    794.00608    9.2599351    9.2599351    9.2599351    35.699326 
     800    344.92906   -10305.439            0   -9278.2994    19431.475    788.33419    9.2378333    9.2378333    9.2378333    36.248635 
     900    337.39404   -10306.898            0    -9302.196    16937.978     785.1758    9.2254799    9.2254799    9.2254799     28.91916 
    1000    331.21982   -10312.626            0   -9326.3097    12242.814    783.86069    9.2203264    9.2203264    9.2203264    27.627619 
Loop time of 31.9101 on 16 procs for 1000 steps with 1000 atoms

Performance: 2.708 ns/day, 8.864 hours/ns, 31.338 timesteps/s
94.3% CPU use with 16 MPI tasks x no OpenMP threads

MPI task timing breakdown:
Section |  min time  |  avg time  |  max time  |%varavg| %total
---------------------------------------------------------------
Pair    | 2.1033     | 2.2936     | 2.4824     |   7.0 |  7.19
Neigh   | 0.73773    | 0.79843    | 0.84221    |   3.3 |  2.50
Comm    | 0.73351    | 0.96671    | 1.2176     |  13.8 |  3.03
Output  | 19.084     | 19.629     | 27.764     |  47.4 | 61.51
Modify  | 0.077144   | 8.2138     | 8.7601     |  73.3 | 25.74
Other   |            | 0.008219   |            |       |  0.03

Nlocal:    62.5 ave 73 max 57 min
Histogram: 1 5 0 6 1 1 1 0 0 1
Nghost:    1863.25 ave 1898 max 1825 min
Histogram: 3 0 0 4 0 2 1 3 0 3
Neighs:    0 ave 0 max 0 min
Histogram: 16 0 0 0 0 0 0 0 0 0
FullNghs:  18846.9 ave 22149 max 17107 min
Histogram: 1 4 3 3 3 0 1 0 0 1

Total # of neighbors = 301550
Ave neighs/atom = 301.55
Neighbor list builds = 1000
Dangerous builds not checked
Setting up Verlet run ...
  Unit style    : real
  Current step  : 1000
  Time step     : 1
Per MPI rank memory allocation (min/avg/max) = 3.768 | 4.375 | 4.579 Mbytes
Step Temp E_pair E_mol TotEng Press Volume Lx Ly Lz S/CPU 
    1000    331.21982   -10312.626            0   -9326.3097    12242.814    783.86069    9.2203264    9.2203264    9.2203264            0 
    1100     317.3203   -10294.307            0   -9349.3809    16904.284    784.29376    9.2220241    9.2220241    9.2220241    41.177255 
    1200    321.59681   -10330.575            0   -9372.9144    13068.846    785.85306    9.2281317    9.2281317    9.2281317    39.045728 
    1300    316.97027   -10337.705            0   -9393.8214    608.27449    787.68783    9.2353079    9.2353079    9.2353079    43.905006 
    1400    311.26556   -10343.242            0   -9416.3464    7980.5441    789.74448    9.2433387    9.2433387    9.2433387     44.30004 
    1500    320.05969   -10391.776            0   -9438.6927   -5588.2479    791.76552    9.2512169    9.2512169    9.2512169    32.169004 
    1600    311.84947   -10385.968            0   -9457.3338   -10646.395    793.21383    9.2568543    9.2568543    9.2568543    31.640508 
    1700     304.0259   -10381.773            0    -9476.436    10041.853    793.89922    9.2595197    9.2595197    9.2595197    42.415076 
    1800    294.43031   -10370.521            0   -9493.7573   -13572.174    794.33119    9.2611988    9.2611988    9.2611988    32.075384 
    1900    294.64271   -10387.775            0   -9510.3792    7696.8717    794.23738    9.2608342    9.2608342    9.2608342    34.020099 
    2000    298.90845   -10415.129            0   -9525.0307   -6519.2623    793.86527    9.2593877    9.2593877    9.2593877    28.667747 
Loop time of 27.6967 on 16 procs for 1000 steps with 1000 atoms

Performance: 3.120 ns/day, 7.694 hours/ns, 36.105 timesteps/s
94.5% CPU use with 16 MPI tasks x no OpenMP threads

MPI task timing breakdown:
Section |  min time  |  avg time  |  max time  |%varavg| %total
---------------------------------------------------------------
Pair    | 2.258      | 2.4297     | 2.5733     |   5.9 |  8.77
Neigh   | 0.77055    | 0.81247    | 0.85954    |   2.9 |  2.93
Comm    | 0.77705    | 0.96768    | 1.1815     |  11.9 |  3.49
Output  | 15.944     | 16.413     | 23.398     |  44.5 | 59.26
Modify  | 0.08011    | 7.0656     | 7.5346     |  67.9 | 25.51
Other   |            | 0.008271   |            |       |  0.03

Nlocal:    62.5 ave 68 max 55 min
Histogram: 1 1 0 2 1 3 2 4 1 1
Nghost:    1835.12 ave 1849 max 1821 min
Histogram: 2 0 0 5 2 0 2 3 1 1
Neighs:    0 ave 0 max 0 min
Histogram: 16 0 0 0 0 0 0 0 0 0
FullNghs:  18589.9 ave 20524 max 16425 min
Histogram: 2 0 0 2 3 3 1 3 1 1

Total # of neighbors = 297438
Ave neighs/atom = 297.438
Neighbor list builds = 1000
Dangerous builds not checked
Setting up Verlet run ...
  Unit style    : real
  Current step  : 2000
  Time step     : 1
Per MPI rank memory allocation (min/avg/max) = 4.577 | 4.578 | 4.579 Mbytes
Step Temp E_pair E_mol TotEng Press Volume Lx Ly Lz S/CPU 
    2000    298.90845   -10415.129            0   -9525.0307   -6519.2623    793.86527    9.2593877    9.2593877    9.2593877            0 
    2100    320.70595   -10495.522            0   -9540.5145   -19241.629    792.70642      9.25488      9.25488      9.25488    40.886361 
    2200    304.93539   -10461.927            0   -9553.8815   -15947.898    790.47214    9.2461767    9.2461767    9.2461767    32.471988 
    2300     293.1396   -10440.972            0   -9568.0521   -1559.4308    787.48955    9.2345329    9.2345329    9.2345329    28.156495 
    2400    303.87663    -10484.53            0   -9579.6371    11379.622    784.81196    9.2240547    9.2240547    9.2240547    32.504914 
    2500    290.68755   -10457.248            0   -9591.6298    10627.608     782.9887    9.2169061    9.2169061    9.2169061    38.918008 
    2600    313.58518   -10538.241            0   -9604.4375     7069.612    781.69598     9.211831     9.211831     9.211831    36.070789 
    2700     297.0774   -10498.325            0   -9613.6788    14286.801    781.26298    9.2101297    9.2101297    9.2101297    34.067079 
    2800    299.19871   -10513.807            0   -9622.8438    22131.678     781.7192    9.2119222    9.2119222    9.2119222    36.638873 
    2900    311.24604   -10557.773            0   -9630.9359    11096.053    783.04054    9.2171095    9.2171095    9.2171095     33.25466 
    3000    283.31809   -10480.247            0   -9636.5744    15289.018     785.3343    9.2261007    9.2261007    9.2261007    34.287418 
Loop time of 29.0836 on 16 procs for 1000 steps with 1000 atoms

Performance: 2.971 ns/day, 8.079 hours/ns, 34.384 timesteps/s
94.4% CPU use with 16 MPI tasks x no OpenMP threads

MPI task timing breakdown:
Section |  min time  |  avg time  |  max time  |%varavg| %total
---------------------------------------------------------------
Pair    | 2.3964     | 2.5637     | 2.6891     |   5.3 |  8.81
Neigh   | 0.80813    | 0.83992    | 0.87392    |   2.1 |  2.89
Comm    | 0.70612    | 0.868      | 1.0672     |  11.0 |  2.98
Output  | 17.194     | 17.669     | 24.741     |  43.4 | 60.75
Modify  | 0.065101   | 7.1346     | 7.6088     |  68.3 | 24.53
Other   |            | 0.008471   |            |       |  0.03

Nlocal:    62.5 ave 66 max 59 min
Histogram: 3 2 0 0 2 2 0 3 3 1
Nghost:    1850.19 ave 1862 max 1840 min
Histogram: 2 1 4 1 3 0 0 1 2 2
Neighs:    0 ave 0 max 0 min
Histogram: 16 0 0 0 0 0 0 0 0 0
FullNghs:  18806.4 ave 19731 max 17568 min
Histogram: 2 2 1 0 1 1 1 2 3 3

Total # of neighbors = 300902
Ave neighs/atom = 300.902
Neighbor list builds = 1000
Dangerous builds not checked
Setting up Verlet run ...
  Unit style    : real
  Current step  : 3000
  Time step     : 1
Per MPI rank memory allocation (min/avg/max) = 4.577 | 4.578 | 4.579 Mbytes
Step Temp E_pair E_mol TotEng Press Volume Lx Ly Lz S/CPU 
    3000    283.31809   -10480.247            0   -9636.5744    15289.018     785.3343    9.2261007    9.2261007    9.2261007            0 
    3100     292.3047   -10513.955            0   -9643.5211   -16339.314    788.15219    9.2371223    9.2371223    9.2371223    29.148234 
    3200    293.46959   -10520.778            0   -9646.8755    2122.5388    790.23498    9.2452519    9.2452519    9.2452519    42.239024 
    3300    291.37674   -10516.816            0   -9649.1455   -10743.708    791.36973    9.2496751    9.2496751    9.2496751    40.033019 
    3400     291.9709   -10520.094            0   -9650.6549   -9918.7483    791.65299    9.2507786    9.2507786    9.2507786    38.496397 
    3500    298.14518   -10538.176            0   -9650.3503   -9949.4941    791.10571    9.2486463    9.2486463    9.2486463    35.646196 
    3600    293.01438   -10520.255            0   -9647.7081   -3552.0017    789.73993    9.2433209    9.2433209    9.2433209    32.719909 
    3700     289.6323   -10505.091            0   -9642.6154    851.20706     788.0667    9.2367883    9.2367883    9.2367883    28.539325 
    3800    291.40228   -10504.938            0   -9637.1916   -13310.199    786.23494    9.2296262    9.2296262    9.2296262    40.539048 
    3900    288.25359   -10488.384            0   -9630.0136   -7474.2013    784.00316     9.220885     9.220885     9.220885    36.301567 
    4000    298.38498   -10509.376            0   -9620.8363    9825.9805    781.23426    9.2100169    9.2100169    9.2100169    33.565835 
Loop time of 28.46 on 16 procs for 1000 steps with 1000 atoms

Performance: 3.036 ns/day, 7.906 hours/ns, 35.137 timesteps/s
94.5% CPU use with 16 MPI tasks x no OpenMP threads

MPI task timing breakdown:
Section |  min time  |  avg time  |  max time  |%varavg| %total
---------------------------------------------------------------
Pair    | 2.0977     | 2.374      | 2.5084     |   7.6 |  8.34
Neigh   | 0.72099    | 0.79659    | 0.84181    |   3.5 |  2.80
Comm    | 0.84112    | 1.0202     | 1.372      |  14.5 |  3.58
Output  | 15.123     | 15.694     | 24.209     |  55.5 | 55.15
Modify  | 0.051225   | 8.5667     | 9.1378     |  75.1 | 30.10
Other   |            | 0.008178   |            |       |  0.03

Nlocal:    62.5 ave 70 max 54 min
Histogram: 1 0 1 4 0 4 3 1 1 1
Nghost:    1877.31 ave 1903 max 1865 min
Histogram: 5 1 2 4 0 1 1 1 0 1
Neighs:    0 ave 0 max 0 min
Histogram: 16 0 0 0 0 0 0 0 0 0
FullNghs:  18891.1 ave 21425 max 16301 min
Histogram: 1 0 2 3 0 4 3 2 0 1

Total # of neighbors = 302258
Ave neighs/atom = 302.258
Neighbor list builds = 1000
Dangerous builds not checked
Setting up Verlet run ...
  Unit style    : real
  Current step  : 4000
  Time step     : 1
Per MPI rank memory allocation (min/avg/max) = 4.577 | 4.578 | 4.579 Mbytes
Step Temp E_pair E_mol TotEng Press Volume Lx Ly Lz S/CPU 
    4000    298.38498   -10509.376            0   -9620.8363    9825.9805    781.23426    9.2100169    9.2100169    9.2100169            0 
    4100    300.56511   -10504.853            0   -9609.8211   -784.86047    778.65291    9.1998618    9.1998618    9.1998618     34.81218 
    4200    304.56188   -10506.309            0   -9599.3761   -11672.492    776.54652    9.1915586    9.1915586    9.1915586    33.841936 
    4300    310.38588   -10514.297            0   -9590.0208    12513.044    774.83431    9.1847981    9.1847981    9.1847981    36.754611 
    4400    313.56039   -10516.036            0   -9582.3062    11685.162    774.40642    9.1831071    9.1831071    9.1831071    34.910539 
    4500    314.47873   -10513.948            0   -9577.4836    8909.2688    774.79829    9.1846558    9.1846558    9.1846558    40.122504 
    4600    312.35206    -10504.75            0   -9574.6185     6405.263    775.94495    9.1891845    9.1891845    9.1891845    40.308952 
    4700    304.16147   -10477.593            0   -9571.8525    3902.1811    777.59404    9.1956897    9.1956897    9.1956897    41.958283 
    4800    317.77277    -10518.06            0   -9571.7867    3531.3384    779.55923    9.2034298    9.2034298    9.2034298    37.758761 
    4900    304.21084    -10478.14            0   -9572.2522   -2733.8774    782.01425     9.213081     9.213081     9.213081     38.37017 
    5000    305.74274   -10485.708            0   -9575.2582    4197.9986    784.67144    9.2235042    9.2235042    9.2235042    42.660887 
Loop time of 26.3679 on 16 procs for 1000 steps with 1000 atoms

Performance: 3.277 ns/day, 7.324 hours/ns, 37.925 timesteps/s
94.5% CPU use with 16 MPI tasks x no OpenMP threads

MPI task timing breakdown:
Section |  min time  |  avg time  |  max time  |%varavg| %total
---------------------------------------------------------------
Pair    | 2.2652     | 2.3989     | 2.5944     |   5.4 |  9.10
Neigh   | 0.75715    | 0.78945    | 0.84321    |   2.4 |  2.99
Comm    | 0.80295    | 1.0517     | 1.2138     |  10.1 |  3.99
Output  | 14.404     | 14.886     | 22.066     |  48.1 | 56.45
Modify  | 0.052804   | 7.2337     | 7.7158     |  68.9 | 27.43
Other   |            | 0.008215   |            |       |  0.03

Nlocal:    62.5 ave 69 max 57 min
Histogram: 3 0 2 0 1 6 3 0 0 1
Nghost:    1848.12 ave 1862 max 1828 min
Histogram: 1 0 2 1 1 3 1 3 1 3
Neighs:    0 ave 0 max 0 min
Histogram: 16 0 0 0 0 0 0 0 0 0
FullNghs:  18817.4 ave 21111 max 16954 min
Histogram: 3 1 1 0 2 5 3 0 0 1

Total # of neighbors = 301078
Ave neighs/atom = 301.078
Neighbor list builds = 1000
Dangerous builds not checked
Setting up Verlet run ...
  Unit style    : real
  Current step  : 5000
  Time step     : 1
Per MPI rank memory allocation (min/avg/max) = 4.577 | 4.578 | 4.579 Mbytes
Step Temp E_pair E_mol TotEng Press Volume Lx Ly Lz S/CPU 
    5000    305.74274   -10485.708            0   -9575.2582    4197.9986    784.67144    9.2235042    9.2235042    9.2235042            0 
    5100    301.00663   -10474.831            0    -9578.485    -2234.294    787.35072    9.2339902    9.2339902    9.2339902     29.36236 
    5200    296.11318   -10464.447            0    -9582.673   -2129.0067    790.08243     9.244657     9.244657     9.244657    29.080356 
    5300    297.97806   -10474.159            0    -9586.831   -15835.295    792.29574    9.2532815    9.2532815    9.2532815    43.563954 
    5400      293.363   -10466.022            0   -9592.4368   -20942.114    793.80939    9.2591704    9.2591704    9.2591704    35.285472 
    5500    303.47592   -10502.478            0    -9598.779    -15175.83    794.01604    9.2599738    9.2599738    9.2599738     31.20747 
    5600    295.82346   -10486.537            0   -9605.6255   -5329.4378    792.91926    9.2557082    9.2557082    9.2557082    31.119911 
    5700    298.66543   -10501.259            0   -9611.8848   -6693.4841    791.16251    9.2488677    9.2488677    9.2488677    41.105134 
    5800    287.38402   -10472.924            0   -9617.1435   -10885.275    788.89897    9.2400388    9.2400388    9.2400388    36.020231 
    5900    308.99441   -10545.214            0   -9625.0812   -5157.9096    786.21006    9.2295289    9.2295289    9.2295289    31.373403 
    6000    303.23167   -10533.786            0   -9630.8136   -97.479712    783.57073    9.2191894    9.2191894    9.2191894    35.216549 
Loop time of 29.6277 on 16 procs for 1000 steps with 1000 atoms

Performance: 2.916 ns/day, 8.230 hours/ns, 33.752 timesteps/s
94.4% CPU use with 16 MPI tasks x no OpenMP threads

MPI task timing breakdown:
Section |  min time  |  avg time  |  max time  |%varavg| %total
---------------------------------------------------------------
Pair    | 2.3302     | 2.4331     | 2.5976     |   5.5 |  8.21
Neigh   | 0.7803     | 0.81259    | 0.85855    |   2.5 |  2.74
Comm    | 0.78959    | 0.9887     | 1.1242     |  10.7 |  3.34
Output  | 15.477     | 16.096     | 25.326     |  59.4 | 54.33
Modify  | 0.059033   | 9.2894     | 9.9083     |  78.2 | 31.35
Other   |            | 0.008272   |            |       |  0.03

Nlocal:    62.5 ave 73 max 58 min
Histogram: 3 1 4 4 3 0 0 0 0 1
Nghost:    1858.62 ave 1886 max 1834 min
Histogram: 2 4 0 2 0 0 1 4 2 1
Neighs:    0 ave 0 max 0 min
Histogram: 16 0 0 0 0 0 0 0 0 0
FullNghs:  18854.8 ave 22265 max 17419 min
Histogram: 3 2 4 4 2 0 0 0 0 1

Total # of neighbors = 301676
Ave neighs/atom = 301.676
Neighbor list builds = 1000
Dangerous builds not checked
Setting up Verlet run ...
  Unit style    : real
  Current step  : 6000
  Time step     : 1
Per MPI rank memory allocation (min/avg/max) = 4.577 | 4.578 | 4.579 Mbytes
Step Temp E_pair E_mol TotEng Press Volume Lx Ly Lz S/CPU 
    6000    303.23167   -10533.786            0   -9630.8136   -97.479712    783.57073    9.2191894    9.2191894    9.2191894            0 
    6100    299.96318   -10529.637            0   -9636.3978    12586.798    781.01211    9.2091438    9.2091438    9.2091438    35.550575 
    6200    288.71201   -10502.885            0     -9643.15    9072.7868    779.33936    9.2025645    9.2025645    9.2025645    33.475078 
    6300    305.07072   -10559.967            0   -9651.5182    8167.3841    778.75742    9.2002734    9.2002734    9.2002734    36.553506 
    6400    293.10244   -10531.727            0   -9658.9175    4240.8686    779.44979    9.2029991    9.2029991    9.2029991    29.096221 
    6500    293.35826   -10538.088            0    -9664.517    5555.8321    781.19002     9.209843     9.209843     9.209843    27.289486 
    6600    299.79411   -10562.533            0   -9669.7974    3019.0344    783.58622    9.2192501    9.2192501    9.2192501    37.617904 
    6700    284.13663   -10518.937            0   -9672.8267    8342.1222    786.41753    9.2303407    9.2303407    9.2303407     40.22432 
    6800    279.15944   -10506.171            0   -9674.8821    6623.3451    789.28445    9.2415436    9.2415436    9.2415436    31.183574 
    6900     291.9988   -10543.191            0   -9673.6687   -3662.6479    791.85632    9.2515705    9.2515705    9.2515705    41.759122 
    7000    290.93811   -10535.086            0   -9668.7215   -15376.733    794.10066    9.2603028    9.2603028    9.2603028     35.34426 
Loop time of 29.2124 on 16 procs for 1000 steps with 1000 atoms

Performance: 2.958 ns/day, 8.115 hours/ns, 34.232 timesteps/s
94.4% CPU use with 16 MPI tasks x no OpenMP threads

MPI task timing breakdown:
Section |  min time  |  avg time  |  max time  |%varavg| %total
---------------------------------------------------------------
Pair    | 2.1452     | 2.36       | 2.5213     |   5.2 |  8.08
Neigh   | 0.74295    | 0.78744    | 0.83589    |   2.4 |  2.70
Comm    | 0.84003    | 1.05       | 1.3096     |   9.8 |  3.59
Output  | 16.122     | 16.671     | 24.869     |  51.8 | 57.07
Modify  | 0.13727    | 8.3354     | 8.8853     |  73.3 | 28.53
Other   |            | 0.008128   |            |       |  0.03

Nlocal:    62.5 ave 69 max 60 min
Histogram: 2 6 1 2 3 1 0 0 0 1
Nghost:    1845.12 ave 1862 max 1820 min
Histogram: 1 0 0 1 3 4 2 2 0 3
Neighs:    0 ave 0 max 0 min
Histogram: 16 0 0 0 0 0 0 0 0 0
FullNghs:  18586.8 ave 20878 max 17729 min
Histogram: 3 4 4 1 2 1 0 0 0 1

Total # of neighbors = 297388
Ave neighs/atom = 297.388
Neighbor list builds = 1000
Dangerous builds not checked
Setting up Verlet run ...
  Unit style    : real
  Current step  : 7000
  Time step     : 1
Per MPI rank memory allocation (min/avg/max) = 4.577 | 4.578 | 4.579 Mbytes
Step Temp E_pair E_mol TotEng Press Volume Lx Ly Lz S/CPU 
    7000    290.93811   -10535.086            0   -9668.7215   -15376.733    794.10066    9.2603028    9.2603028    9.2603028            0 
    7100    291.50145   -10525.601            0   -9657.5597    -16330.03    795.53303    9.2658672    9.2658672    9.2658672    33.663784 
    7200    300.21185   -10535.206            0   -9641.2267   -11270.599    795.88682    9.2672406    9.2672406    9.2672406    39.535305 
    7300     291.6923   -10490.463            0   -9621.8535   -7291.2706    795.33407    9.2650947    9.2650947    9.2650947    40.032655 
    7400    296.96625   -10491.096            0   -9606.7814   -6949.8542    794.03153     9.260034     9.260034     9.260034    32.525195 
    7500    305.46177   -10505.281            0   -9595.6677   -5588.4789    792.37964    9.2536081    9.2536081    9.2536081    42.809254 
    7600    315.72716    -10528.46            0   -9588.2784   -15197.607    790.55924    9.2465163    9.2465163    9.2465163    35.519743 
    7700    297.55896   -10468.347            0   -9582.2677    -2573.999    788.56636    9.2387401    9.2387401    9.2387401    33.887221 
    7800     302.5452   -10478.159            0   -9577.2313    1253.6361    786.76135    9.2316856    9.2316856    9.2316856    34.492997 
    7900    315.30361   -10513.788            0   -9574.8681    -2456.267    785.04193    9.2249556    9.2249556    9.2249556    32.876004 
    8000    307.48307    -10489.71            0   -9574.0783    13077.226    783.45727    9.2187444    9.2187444    9.2187444    37.067996 
Loop time of 27.8134 on 16 procs for 1000 steps with 1000 atoms

Performance: 3.106 ns/day, 7.726 hours/ns, 35.954 timesteps/s
94.5% CPU use with 16 MPI tasks x no OpenMP threads

MPI task timing breakdown:
Section |  min time  |  avg time  |  max time  |%varavg| %total
---------------------------------------------------------------
Pair    | 2.1286     | 2.2705     | 2.4421     |   5.6 |  8.16
Neigh   | 0.74541    | 0.7725     | 0.81982    |   2.3 |  2.78
Comm    | 0.86058    | 1.0796     | 1.2491     |  10.0 |  3.88
Output  | 15.63      | 16.134     | 23.638     |  48.2 | 58.01
Modify  | 0.044267   | 7.5485     | 8.0524     |  70.5 | 27.14
Other   |            | 0.008033   |            |       |  0.03

Nlocal:    62.5 ave 73 max 55 min
Histogram: 1 2 2 5 0 2 3 0 0 1
Nghost:    1868.25 ave 1877 max 1854 min
Histogram: 1 0 1 2 0 2 4 2 1 3
Neighs:    0 ave 0 max 0 min
Histogram: 16 0 0 0 0 0 0 0 0 0
FullNghs:  18839.8 ave 21988 max 16691 min
Histogram: 1 2 2 5 0 3 2 0 0 1

Total # of neighbors = 301436
Ave neighs/atom = 301.436
Neighbor list builds = 1000
Dangerous builds not checked
Setting up Verlet run ...
  Unit style    : real
  Current step  : 8000
  Time step     : 1
Per MPI rank memory allocation (min/avg/max) = 4.577 | 4.578 | 4.579 Mbytes
Step Temp E_pair E_mol TotEng Press Volume Lx Ly Lz S/CPU 
    8000    307.48307    -10489.71            0   -9574.0783    13077.226    783.45727    9.2187444    9.2187444    9.2187444            0 
    8100    312.14806   -10505.528            0   -9576.0041    1930.5599    782.41426    9.2146516    9.2146516    9.2146516    33.315845 
    8200    314.99373    -10516.62            0   -9578.6222    12018.009    782.18282    9.2137429    9.2137429    9.2137429    27.196871 
    8300    300.63581   -10477.712            0   -9582.4694   -279.47196    782.38856    9.2145507    9.2145507    9.2145507    30.701189 
    8400    298.67676   -10476.369            0   -9586.9607   -9306.1805    782.44156    9.2147587    9.2147587    9.2147587    44.662859 
    8500    297.14881   -10477.735            0   -9592.8768   -211.30768    782.41267    9.2146453    9.2146453    9.2146453    34.602225 
    8600    294.43919   -10476.489            0   -9599.6997    -277.6823     782.5376    9.2151358    9.2151358    9.2151358    39.747317 
    8700    291.73251   -10475.578            0   -9606.8482   -12949.804    783.01064    9.2169922    9.2169922    9.2169922     33.85118 
    8800     298.3865   -10504.326            0   -9615.7823    4225.1015    783.89887    9.2204761    9.2204761    9.2204761      36.3603 
    8900    306.30414   -10535.304            0   -9623.1827    7655.4402    784.99216    9.2247606    9.2247606    9.2247606    36.672834 
    9000     282.7933   -10472.579            0   -9630.4684    10753.871    786.51499    9.2307219    9.2307219    9.2307219    40.274965 
Loop time of 28.4947 on 16 procs for 1000 steps with 1000 atoms

Performance: 3.032 ns/day, 7.915 hours/ns, 35.094 timesteps/s
94.5% CPU use with 16 MPI tasks x no OpenMP threads

MPI task timing breakdown:
Section |  min time  |  avg time  |  max time  |%varavg| %total
---------------------------------------------------------------
Pair    | 2.2977     | 2.4211     | 2.6138     |   4.9 |  8.50
Neigh   | 0.76554    | 0.80014    | 0.84915    |   2.3 |  2.81
Comm    | 0.76893    | 1.0124     | 1.1704     |   9.6 |  3.55
Output  | 16.124     | 16.629     | 24.162     |  47.7 | 58.36
Modify  | 0.091948   | 7.6237     | 8.129      |  70.4 | 26.75
Other   |            | 0.008252   |            |       |  0.03

Nlocal:    62.5 ave 66 max 58 min
Histogram: 1 1 2 1 0 2 3 2 3 1
Nghost:    1851.44 ave 1865 max 1828 min
Histogram: 1 0 1 1 2 1 1 4 4 1
Neighs:    0 ave 0 max 0 min
Histogram: 16 0 0 0 0 0 0 0 0 0
FullNghs:  18771.8 ave 19930 max 17483 min
Histogram: 2 1 1 2 1 1 2 3 2 1

Total # of neighbors = 300348
Ave neighs/atom = 300.348
Neighbor list builds = 1000
Dangerous builds not checked
Setting up Verlet run ...
  Unit style    : real
  Current step  : 9000
  Time step     : 1
Per MPI rank memory allocation (min/avg/max) = 4.577 | 4.578 | 4.579 Mbytes
Step Temp E_pair E_mol TotEng Press Volume Lx Ly Lz S/CPU 
    9000     282.7933   -10472.579            0   -9630.4684    10753.871    786.51499    9.2307219    9.2307219    9.2307219            0 
    9100    291.03486   -10504.368            0   -9637.7154    1510.1416    788.34016    9.2378566    9.2378566    9.2378566    35.919852 
    9200    295.24178   -10523.538            0   -9644.3583   -7715.4232    790.30467    9.2455237    9.2455237    9.2455237    40.018299 
    9300    294.53389   -10524.752            0   -9647.6805   -17628.176    791.91656    9.2518051    9.2518051    9.2518051    34.331871 
    9400    293.69047   -10525.086            0   -9650.5261    2937.2775    792.31461     9.253355     9.253355     9.253355     38.05006 
    9500    292.97731   -10523.358            0   -9650.9211   -16075.953    791.69382    9.2509376    9.2509376    9.2509376    36.397081 
    9600    292.63064   -10521.809            0   -9650.4044   -2547.1502    790.42981    9.2460117    9.2460117    9.2460117    30.950121 
    9700    301.02528   -10543.217            0   -9646.8155    639.27731    788.99033    9.2403955    9.2403955    9.2403955     31.19243 
    9800    291.89376   -10507.397            0   -9638.1871   -13627.449    787.23058    9.2335205    9.2335205    9.2335205     38.49656 
    9900    308.82744   -10545.728            0   -9626.0924   -5074.4871    784.67015    9.2234991    9.2234991    9.2234991    34.036816 
   10000    299.61529   -10500.191            0   -9607.9879    14634.356    781.61591    9.2115164    9.2115164    9.2115164    27.399901 
Loop time of 29.1934 on 16 procs for 1000 steps with 1000 atoms

Performance: 2.960 ns/day, 8.109 hours/ns, 34.254 timesteps/s
94.4% CPU use with 16 MPI tasks x no OpenMP threads

MPI task timing breakdown:
Section |  min time  |  avg time  |  max time  |%varavg| %total
---------------------------------------------------------------
Pair    | 2.2        | 2.3251     | 2.507      |   6.3 |  7.96
Neigh   | 0.75097    | 0.78418    | 0.83267    |   2.6 |  2.69
Comm    | 0.81311    | 1.0436     | 1.1971     |  11.5 |  3.57
Output  | 17.485     | 17.956     | 24.966     |  42.7 | 61.51
Modify  | 0.066481   | 7.0767     | 7.5476     |  68.0 | 24.24
Other   |            | 0.008067   |            |       |  0.03

Nlocal:    62.5 ave 68 max 57 min
Histogram: 2 3 0 1 2 1 2 1 2 2
Nghost:    1864.31 ave 1876 max 1851 min
Histogram: 2 0 1 2 3 0 4 1 1 2
Neighs:    0 ave 0 max 0 min
Histogram: 16 0 0 0 0 0 0 0 0 0
FullNghs:  18892.1 ave 20349 max 17298 min
Histogram: 2 3 0 1 1 2 2 1 1 3

Total # of neighbors = 302274
Ave neighs/atom = 302.274
Neighbor list builds = 1000
Dangerous builds not checked
Setting up Verlet run ...
  Unit style    : real
  Current step  : 10000
  Time step     : 1
Per MPI rank memory allocation (min/avg/max) = 4.577 | 4.578 | 4.579 Mbytes
Step Temp E_pair E_mol TotEng Press Volume Lx Ly Lz S/CPU 
   10000    299.61529   -10500.191            0   -9607.9879    14634.356    781.61591    9.2115164    9.2115164    9.2115164            0 
   10100    304.62845   -10496.168            0   -9589.0369    16928.029    778.96123    9.2010759    9.2010759    9.2010759    32.942508 
   10200     298.8313   -10464.895            0   -9575.0259    5207.3109    777.01937    9.1934238    9.1934238    9.1934238    40.737284 
   10300    310.45699   -10490.339            0   -9565.8513    16662.034    775.39112    9.1869977    9.1869977    9.1869977    34.050621 
   10400    306.58709   -10473.959            0   -9560.9949    11548.712    774.59992    9.1838719    9.1838719    9.1838719    36.114105 
   10500    306.56089   -10472.323            0   -9559.4372   -3392.1327    774.59515     9.183853     9.183853     9.183853    30.763476 
   10600    295.32474   -10437.276            0    -9557.849    2741.9274    774.89566    9.1850405    9.1850405    9.1850405    30.754207 
   10700    311.41374   -10487.889            0   -9560.5524     -1219.31    775.61271    9.1878728    9.1878728    9.1878728    44.719075 
   10800    299.99361   -10455.079            0   -9561.7493     972.0585    776.42153    9.1910654    9.1910654    9.1910654    26.942438 
   10900     306.2879   -10478.479            0   -9566.4057   -8929.0261    777.38495    9.1948654    9.1948654    9.1948654    34.866222 
   11000    304.17041   -10476.963            0   -9571.1951     9128.552    778.30578    9.1984945    9.1984945    9.1984945    38.178882 
Loop time of 29.1335 on 16 procs for 1000 steps with 1000 atoms

Performance: 2.966 ns/day, 8.093 hours/ns, 34.325 timesteps/s
94.5% CPU use with 16 MPI tasks x no OpenMP threads

MPI task timing breakdown:
Section |  min time  |  avg time  |  max time  |%varavg| %total
---------------------------------------------------------------
Pair    | 2.381      | 2.4872     | 2.6598     |   5.1 |  8.54
Neigh   | 0.77164    | 0.81084    | 0.85706    |   2.4 |  2.78
Comm    | 0.79532    | 1.0137     | 1.1503     |  10.1 |  3.48
Output  | 16.622     | 17.134     | 24.749     |  47.5 | 58.81
Modify  | 0.063847   | 7.6794     | 8.1921     |  71.0 | 26.36
Other   |            | 0.00831    |            |       |  0.03

Nlocal:    62.5 ave 69 max 56 min
Histogram: 1 1 1 3 1 3 3 1 1 1
Nghost:    1858.19 ave 1882 max 1830 min
Histogram: 1 1 0 2 3 3 2 1 2 1
Neighs:    0 ave 0 max 0 min
Histogram: 16 0 0 0 0 0 0 0 0 0
FullNghs:  18981.8 ave 20988 max 16916 min
Histogram: 1 1 1 2 2 3 3 1 1 1

Total # of neighbors = 303708
Ave neighs/atom = 303.708
Neighbor list builds = 1000
Dangerous builds not checked
Setting up Verlet run ...
  Unit style    : real
  Current step  : 11000
  Time step     : 1
Per MPI rank memory allocation (min/avg/max) = 4.577 | 4.578 | 4.579 Mbytes
Step Temp E_pair E_mol TotEng Press Volume Lx Ly Lz S/CPU 
   11000    304.17041   -10476.963            0   -9571.1951     9128.552    778.30578    9.1984945    9.1984945    9.1984945            0 
   11100    310.36301   -10502.034            0   -9577.8262   -2746.1079    779.41908    9.2028783    9.2028783    9.2028783    36.605273 
   11200    303.20217   -10487.066            0   -9584.1815    12823.875    780.67078    9.2078021    9.2078021    9.2078021    38.008136 
   11300    302.06741    -10491.64            0   -9592.1353    16089.978    782.11619    9.2134813    9.2134813    9.2134813    35.867526 
   11400    302.58524   -10502.016            0   -9600.9684   -8477.6483    783.98343    9.2208076    9.2208076    9.2208076    35.144111 
   11500      310.898   -10535.611            0   -9609.8096    6161.6224    786.16777    9.2293634    9.2293634    9.2293634    40.336168 
   11600    281.37238   -10454.368            0   -9616.4891   -19767.121    788.34415    9.2378722    9.2378722    9.2378722    30.004276 
   11700     291.7517   -10491.821            0   -9623.0338   -13575.411    789.61111    9.2428183    9.2428183    9.2428183    35.927208 
   11800    296.67788   -10512.474            0   -9629.0179   -15729.052     790.1689    9.2449942    9.2449942    9.2449942    33.512395 
   11900    286.69786   -10486.427            0   -9632.6894   -7647.6882    789.79058    9.2435185    9.2435185    9.2435185    35.103204 
   12000    301.14192   -10531.823            0    -9635.074   -14128.688    788.55169    9.2386828    9.2386828    9.2386828    39.917997 
Loop time of 27.9296 on 16 procs for 1000 steps with 1000 atoms

Performance: 3.093 ns/day, 7.758 hours/ns, 35.804 timesteps/s
94.5% CPU use with 16 MPI tasks x no OpenMP threads

MPI task timing breakdown:
Section |  min time  |  avg time  |  max time  |%varavg| %total
---------------------------------------------------------------
Pair    | 2.2892     | 2.3925     | 2.5819     |   5.7 |  8.57
Neigh   | 0.76762    | 0.79557    | 0.8511     |   2.4 |  2.85
Comm    | 0.78147    | 1.0251     | 1.1571     |  10.7 |  3.67
Output  | 16.235     | 16.702     | 23.657     |  43.9 | 59.80
Modify  | 0.04991    | 7.0059     | 7.4848     |  67.9 | 25.08
Other   |            | 0.008166   |            |       |  0.03

Nlocal:    62.5 ave 68 max 56 min
Histogram: 1 0 2 1 2 3 4 1 1 1
Nghost:    1838.88 ave 1859 max 1826 min
Histogram: 3 1 2 4 1 2 0 0 2 1
Neighs:    0 ave 0 max 0 min
Histogram: 16 0 0 0 0 0 0 0 0 0
FullNghs:  18717.6 ave 20578 max 16677 min
Histogram: 1 0 1 3 1 3 4 2 0 1

Total # of neighbors = 299482
Ave neighs/atom = 299.482
Neighbor list builds = 1000
Dangerous builds not checked
Setting up Verlet run ...
  Unit style    : real
  Current step  : 12000
  Time step     : 1
Per MPI rank memory allocation (min/avg/max) = 4.577 | 4.578 | 4.579 Mbytes
Step Temp E_pair E_mol TotEng Press Volume Lx Ly Lz S/CPU 
   12000    301.14192   -10531.823            0    -9635.074   -14128.688    788.55169    9.2386828    9.2386828    9.2386828            0 
   12100    283.16525   -10478.631            0    -9635.413    -1915.944    786.40691    9.2302991    9.2302991    9.2302991    43.055164 
   12200    281.77598   -10474.994            0   -9635.9129   -4659.9281     783.8906    9.2204437    9.2204437    9.2204437    35.215599 
   12300    296.58641   -10517.437            0   -9634.2534    1695.8001    781.09815     9.209482     9.209482     9.209482    30.490385 
   12400    294.30967   -10506.599            0   -9630.1947    7229.0865    778.63066    9.1997742    9.1997742    9.1997742    32.093791 
   12500    295.39677   -10505.188            0   -9625.5465    22034.087    777.11473    9.1937999    9.1937999    9.1937999     32.58127 
   12600     298.1656   -10507.691            0   -9619.8044    25282.344    776.88891    9.1929093    9.1929093    9.1929093    29.560754 
   12700    296.95058   -10498.867            0   -9614.5993    26911.842    778.26372    9.1983288    9.1983288    9.1983288    33.737337 
   12800    307.17838   -10523.382            0   -9608.6575   -25.244431    780.61098    9.2075669    9.2075669    9.2075669    44.651127 
   12900    298.99859   -10489.592            0   -9599.2252    11235.767    783.15971    9.2175771    9.2175771    9.2175771    34.725448 
   13000    296.40366   -10468.678            0   -9586.0381   -1244.7914     786.2319    9.2296143    9.2296143    9.2296143    30.376824 
Loop time of 29.3853 on 16 procs for 1000 steps with 1000 atoms

Performance: 2.940 ns/day, 8.163 hours/ns, 34.031 timesteps/s
94.4% CPU use with 16 MPI tasks x no OpenMP threads

MPI task timing breakdown:
Section |  min time  |  avg time  |  max time  |%varavg| %total
---------------------------------------------------------------
Pair    | 2.2264     | 2.3734     | 2.5317     |   5.1 |  8.08
Neigh   | 0.75223    | 0.7875     | 0.83759    |   2.6 |  2.68
Comm    | 0.85239    | 1.0607     | 1.2428     |   9.7 |  3.61
Output  | 17.165     | 17.666     | 25.091     |  45.6 | 60.12
Modify  | 0.064119   | 7.4893     | 7.9903     |  70.1 | 25.49
Other   |            | 0.008151   |            |       |  0.03

Nlocal:    62.5 ave 68 max 59 min
Histogram: 1 1 5 1 3 3 1 0 0 1
Nghost:    1862.81 ave 1885 max 1838 min
Histogram: 2 0 1 1 2 5 1 1 1 2
Neighs:    0 ave 0 max 0 min
Histogram: 16 0 0 0 0 0 0 0 0 0
FullNghs:  18780.6 ave 20669 max 17726 min
Histogram: 3 2 2 2 1 5 0 0 0 1

Total # of neighbors = 300490
Ave neighs/atom = 300.49
Neighbor list builds = 1000
Dangerous builds not checked
Setting up Verlet run ...
  Unit style    : real
  Current step  : 13000
  Time step     : 1
Per MPI rank memory allocation (min/avg/max) = 4.577 | 4.578 | 4.579 Mbytes
Step Temp E_pair E_mol TotEng Press Volume Lx Ly Lz S/CPU 
   13000    296.40366   -10468.678            0   -9586.0381   -1244.7914     786.2319    9.2296143    9.2296143    9.2296143            0 
   13100    313.19337   -10499.172            0    -9566.536   -14350.905    789.11969    9.2409005    9.2409005    9.2409005    29.419323 
   13200    301.02685   -10438.614            0   -9542.2075   -2510.1525    790.84056     9.247613     9.247613     9.247613    35.685499 
   13300    302.57379   -10426.837            0   -9525.8238   -5909.4083     791.9298    9.2518566    9.2518566    9.2518566    38.658396 
   13400     310.5575   -10441.448            0   -9516.6612   -10062.192    792.87081    9.2555197    9.2555197    9.2555197    32.868771 
   13500     304.5255   -10419.156            0   -9512.3309   -8428.0422    793.09857    9.2564059    9.2564059    9.2564059    36.716884 
   13600    309.31504   -10433.078            0   -9511.9908   -5452.2438    792.52286    9.2541656    9.2541656    9.2541656    30.202994 
   13700    315.14833     -10452.2            0   -9513.7424   -15957.435     791.3319    9.2495277    9.2495277    9.2495277    33.357226 
   13800    297.52729   -10404.998            0   -9519.0129   -5975.0505    789.39507    9.2419753    9.2419753    9.2419753    37.555358 
   13900    309.16945   -10447.725            0   -9527.0714   -68.744701    787.28569     9.233736     9.233736     9.233736    35.204124 
   14000    307.14216   -10449.412            0   -9534.7953   -3902.5784    785.55538    9.2269663    9.2269663    9.2269663    33.158262 
Loop time of 29.382 on 16 procs for 1000 steps with 1000 atoms

Performance: 2.941 ns/day, 8.162 hours/ns, 34.034 timesteps/s
94.4% CPU use with 16 MPI tasks x no OpenMP threads

MPI task timing breakdown:
Section |  min time  |  avg time  |  max time  |%varavg| %total
---------------------------------------------------------------
Pair    | 2.2789     | 2.4072     | 2.5915     |   5.3 |  8.19
Neigh   | 0.77594    | 0.80361    | 0.86167    |   2.4 |  2.74
Comm    | 0.74996    | 0.99233    | 1.1454     |  10.2 |  3.38
Output  | 17.569     | 18.042     | 25.092     |  42.9 | 61.41
Modify  | 0.07825    | 7.1284     | 7.6021     |  68.2 | 24.26
Other   |            | 0.008254   |            |       |  0.03

Nlocal:    62.5 ave 67 max 57 min
Histogram: 2 0 0 3 1 1 1 4 1 3
Nghost:    1848.81 ave 1877 max 1824 min
Histogram: 2 1 0 4 3 1 2 0 2 1
Neighs:    0 ave 0 max 0 min
Histogram: 16 0 0 0 0 0 0 0 0 0
FullNghs:  18786 ave 20222 max 17069 min
Histogram: 2 0 3 1 1 0 3 3 2 1

Total # of neighbors = 300576
Ave neighs/atom = 300.576
Neighbor list builds = 1000
Dangerous builds not checked
Setting up Verlet run ...
  Unit style    : real
  Current step  : 14000
  Time step     : 1
Per MPI rank memory allocation (min/avg/max) = 4.577 | 4.578 | 4.579 Mbytes
Step Temp E_pair E_mol TotEng Press Volume Lx Ly Lz S/CPU 
   14000    307.14216   -10449.412            0   -9534.7953   -3902.5784    785.55538    9.2269663    9.2269663    9.2269663            0 
   14100    311.54254   -10472.536            0   -9544.8153    4548.4766    783.99389    9.2208486    9.2208486    9.2208486    35.465037 
   14200     303.6824   -10460.707            0   -9556.3923   -864.36586    782.59601     9.215365     9.215365     9.215365    27.567572 
   14300     305.6258   -10477.576            0   -9567.4744     1208.855    781.23695    9.2100275    9.2100275    9.2100275    40.381122 
   14400    310.06269   -10500.069            0   -9576.7557    27.123762     780.0989    9.2055531    9.2055531    9.2055531    36.276062 
   14500    287.69486    -10440.86            0   -9584.1536    10165.089    779.41739    9.2028716    9.2028716    9.2028716     41.63187 
   14600    296.06356   -10474.507            0   -9592.8802    11339.361    779.05116      9.20143      9.20143      9.20143    41.203948 
   14700    301.20608   -10498.008            0   -9601.0681    1018.7842    779.34134    9.2025723    9.2025723    9.2025723    33.982486 
   14800    300.33933   -10501.372            0   -9607.0129   -3111.6292    779.82419    9.2044724    9.2044724    9.2044724    39.548625 
   14900    302.14291   -10512.851            0    -9613.121    3797.7135    780.46474    9.2069919    9.2069919    9.2069919    33.291607 
   15000    298.31169   -10504.459            0   -9616.1377    9329.5418    781.24507    9.2100594    9.2100594    9.2100594    39.124953 
Loop time of 27.5401 on 16 procs for 1000 steps with 1000 atoms

Performance: 3.137 ns/day, 7.650 hours/ns, 36.311 timesteps/s
94.5% CPU use with 16 MPI tasks x no OpenMP threads

MPI task timing breakdown:
Section |  min time  |  avg time  |  max time  |%varavg| %total
---------------------------------------------------------------
Pair    | 2.3167     | 2.4404     | 2.7001     |   5.4 |  8.86
Neigh   | 0.76779    | 0.80323    | 0.86925    |   2.5 |  2.92
Comm    | 0.70239    | 1.0281     | 1.1871     |  10.5 |  3.73
Output  | 16.033     | 16.483     | 23.184     |  42.6 | 59.85
Modify  | 0.075412   | 6.7769     | 7.2272     |  66.5 | 24.61
Other   |            | 0.008265   |            |       |  0.03

Nlocal:    62.5 ave 69 max 56 min
Histogram: 1 1 3 2 0 2 4 1 0 2
Nghost:    1859.69 ave 1878 max 1846 min
Histogram: 4 1 1 1 0 4 3 1 0 1
Neighs:    0 ave 0 max 0 min
Histogram: 16 0 0 0 0 0 0 0 0 0
FullNghs:  18884.6 ave 20804 max 16901 min
Histogram: 1 2 2 1 2 1 1 4 0 2

Total # of neighbors = 302154
Ave neighs/atom = 302.154
Neighbor list builds = 1000
Dangerous builds not checked
Setting up Verlet run ...
  Unit style    : real
  Current step  : 15000
  Time step     : 1
Per MPI rank memory allocation (min/avg/max) = 4.577 | 4.578 | 4.579 Mbytes
Step Temp E_pair E_mol TotEng Press Volume Lx Ly Lz S/CPU 
   15000    298.31169   -10504.459            0   -9616.1377    9329.5418    781.24507    9.2100594    9.2100594    9.2100594            0 
   15100    298.49961   -10509.687            0   -9620.8064    -4904.606    782.00484     9.213044     9.213044     9.213044    35.769459 
   15200    291.59393   -10490.938            0   -9622.6215   -4103.0778    782.23754    9.2139578    9.2139578    9.2139578    34.296419 
   15300    290.82269   -10489.934            0   -9623.9137   -12391.923    781.79454    9.2122181    9.2122181    9.2122181    43.977622 
   15400    294.82424   -10501.378            0   -9623.4417   -37762.045    780.74209    9.2080824    9.2080824    9.2080824    40.834892 
   15500    284.42302   -10468.188            0   -9621.2249   -3294.8888     778.8094    9.2004781    9.2004781    9.2004781    37.207841 
   15600    298.65398    -10509.61            0   -9620.2692    2591.2627    776.90513    9.1929733    9.1929733    9.1929733    38.706095 
   15700    294.83181   -10494.888            0   -9616.9296    4153.2009    775.17473     9.186143     9.186143     9.186143    44.019951 
   15800    309.23618   -10535.379            0   -9614.5265    19538.441    774.11517    9.1819557    9.1819557    9.1819557    35.947933 
   15900    296.54808   -10491.927            0   -9608.8577    10127.877    774.17456    9.1821905    9.1821905    9.1821905    31.723243 
   16000    307.97875   -10519.509            0   -9602.4008    8926.1015    775.35407    9.1868514    9.1868514    9.1868514    42.160285 
Loop time of 26.2831 on 16 procs for 1000 steps with 1000 atoms

Performance: 3.287 ns/day, 7.301 hours/ns, 38.047 timesteps/s
94.5% CPU use with 16 MPI tasks x no OpenMP threads

MPI task timing breakdown:
Section |  min time  |  avg time  |  max time  |%varavg| %total
---------------------------------------------------------------
Pair    | 2.288      | 2.3969     | 2.6135     |   4.9 |  9.12
Neigh   | 0.76513    | 0.79058    | 0.854      |   2.4 |  3.01
Comm    | 0.80245    | 1.0819     | 1.2147     |   9.1 |  4.12
Output  | 14.472     | 14.941     | 21.932     |  46.7 | 56.85
Modify  | 0.072448   | 7.0642     | 7.5374     |  67.9 | 26.88
Other   |            | 0.008154   |            |       |  0.03

Nlocal:    62.5 ave 65 max 59 min
Histogram: 2 0 0 2 0 3 3 0 5 1
Nghost:    1880.06 ave 1903 max 1862 min
Histogram: 5 0 1 2 1 2 0 2 1 2
Neighs:    0 ave 0 max 0 min
Histogram: 16 0 0 0 0 0 0 0 0 0
FullNghs:  19037.9 ave 19820 max 17744 min
Histogram: 1 1 0 0 3 2 3 1 1 4

Total # of neighbors = 304606
Ave neighs/atom = 304.606
Neighbor list builds = 1000
Dangerous builds not checked
Setting up Verlet run ...
  Unit style    : real
  Current step  : 16000
  Time step     : 1
Per MPI rank memory allocation (min/avg/max) = 4.577 | 4.578 | 4.579 Mbytes
Step Temp E_pair E_mol TotEng Press Volume Lx Ly Lz S/CPU 
   16000    307.97875   -10519.509            0   -9602.4008    8926.1015    775.35407    9.1868514    9.1868514    9.1868514            0 
   16100    304.73859   -10501.085            0    -9593.626    -7214.772      777.401    9.1949287    9.1949287    9.1949287    42.961379 
   16200    303.70119    -10484.84            0   -9580.4698    -2058.724    779.60737    9.2036193    9.2036193    9.2036193    39.666302 
   16300    309.35049   -10488.576            0   -9567.3833    3147.6489    781.41617    9.2107317    9.2107317    9.2107317    35.380754 
   16400     317.4057   -10501.332            0   -9556.1524   -21486.395    782.75585    9.2159924    9.2159924    9.2159924    35.016224 
   16500    302.09541    -10445.41            0   -9545.8214   -6896.5519    782.97081    9.2168359    9.2168359    9.2168359    35.168349 
   16600    307.07612   -10454.105            0   -9539.6847    18172.857     782.7214    9.2158572    9.2158572    9.2158572    37.992483 
   16700    311.77466   -10464.133            0   -9535.7212    11884.951     783.1967    9.2177222    9.2177222    9.2177222     36.20692 
   16800     307.8951   -10450.417            0    -9533.558     4172.064    784.66838    9.2234922    9.2234922    9.2234922    29.629223 
   16900    298.92307    -10424.62            0   -9534.4778    6081.8175    786.69374    9.2314211    9.2314211    9.2314211    33.268387 
   17000    317.07002   -10484.235            0   -9540.0545   -3749.3651    789.05447    9.2406459    9.2406459    9.2406459    28.520695 
Loop time of 28.6555 on 16 procs for 1000 steps with 1000 atoms

Performance: 3.015 ns/day, 7.960 hours/ns, 34.897 timesteps/s
94.4% CPU use with 16 MPI tasks x no OpenMP threads

MPI task timing breakdown:
Section |  min time  |  avg time  |  max time  |%varavg| %total
---------------------------------------------------------------
Pair    | 2.2223     | 2.4309     | 2.5996     |   5.7 |  8.48
Neigh   | 0.75787    | 0.80157    | 0.85422    |   2.6 |  2.80
Comm    | 0.80386    | 1.0252     | 1.2775     |  11.1 |  3.58
Output  | 16.46      | 16.951     | 24.271     |  45.9 | 59.15
Modify  | 0.11829    | 7.4385     | 7.9305     |  69.3 | 25.96
Other   |            | 0.008246   |            |       |  0.03

Nlocal:    62.5 ave 70 max 57 min
Histogram: 1 1 1 4 6 1 1 0 0 1
Nghost:    1847.38 ave 1861 max 1831 min
Histogram: 1 2 0 1 2 3 2 2 0 3
Neighs:    0 ave 0 max 0 min
Histogram: 16 0 0 0 0 0 0 0 0 0
FullNghs:  18704.5 ave 20902 max 17068 min
Histogram: 1 1 2 2 7 1 0 1 0 1

Total # of neighbors = 299272
Ave neighs/atom = 299.272
Neighbor list builds = 1000
Dangerous builds not checked
Setting up Verlet run ...
  Unit style    : real
  Current step  : 17000
  Time step     : 1
Per MPI rank memory allocation (min/avg/max) = 4.577 | 4.578 | 4.579 Mbytes
Step Temp E_pair E_mol TotEng Press Volume Lx Ly Lz S/CPU 
   17000    317.07002   -10484.235            0   -9540.0545   -3749.3651    789.05447    9.2406459    9.2406459    9.2406459            0 
   17100    316.63981   -10490.623            0   -9547.7241   -11242.885    791.21311    9.2490649    9.2490649    9.2490649    30.571094 
   17200    304.45411   -10463.322            0   -9556.7096   -12767.709    792.91179    9.2556792    9.2556792    9.2556792    46.329822 
   17300    302.43306   -10468.876            0   -9568.2817   -13656.353    794.04073    9.2600698    9.2600698    9.2600698    32.324271 
   17400    304.07243   -10485.067            0    -9579.591     7102.752    794.79313    9.2629937    9.2629937    9.2629937    34.638625 
   17500    300.16264   -10484.049            0   -9590.2157   -5645.4532    795.63902    9.2662787    9.2662787    9.2662787    38.270403 
   17600    302.50518   -10498.666            0    -9597.857   -9873.3699    796.19677    9.2684434    9.2684434    9.2684434    32.868616 
   17700    300.37794   -10495.883            0   -9601.4083   -7728.7759    796.16543    9.2683218    9.2683218    9.2683218    34.030058 
   17800    299.01455   -10495.006            0   -9604.5922   -4057.8798    795.43954    9.2655042    9.2655042    9.2655042    29.590085 
   17900    291.40082   -10475.649            0   -9607.9067   -11914.519    794.31299     9.261128     9.261128     9.261128    35.277528 
   18000    296.94013    -10493.71            0   -9609.4729   -3617.5558    792.52286    9.2541656    9.2541656    9.2541656    29.147581 
Loop time of 29.6491 on 16 procs for 1000 steps with 1000 atoms

Performance: 2.914 ns/day, 8.236 hours/ns, 33.728 timesteps/s
94.4% CPU use with 16 MPI tasks x no OpenMP threads

MPI task timing breakdown:
Section |  min time  |  avg time  |  max time  |%varavg| %total
---------------------------------------------------------------
Pair    | 2.2186     | 2.3544     | 2.5318     |   4.8 |  7.94
Neigh   | 0.76818    | 0.79611    | 0.84717    |   2.2 |  2.69
Comm    | 0.76434    | 0.98786    | 1.1464     |   9.2 |  3.33
Output  | 18.09      | 18.554     | 25.426     |  41.2 | 62.58
Modify  | 0.071561   | 6.9482     | 7.4139     |  67.4 | 23.43
Other   |            | 0.00818    |            |       |  0.03

Nlocal:    62.5 ave 66 max 59 min
Histogram: 1 0 5 0 3 2 0 3 0 2
Nghost:    1849.38 ave 1871 max 1828 min
Histogram: 1 1 2 2 3 1 2 1 2 1
Neighs:    0 ave 0 max 0 min
Histogram: 16 0 0 0 0 0 0 0 0 0
FullNghs:  18601 ave 19609 max 17542 min
Histogram: 1 0 3 2 3 1 2 2 0 2

Total # of neighbors = 297616
Ave neighs/atom = 297.616
Neighbor list builds = 1000
Dangerous builds not checked
Setting up Verlet run ...
  Unit style    : real
  Current step  : 18000
  Time step     : 1
Per MPI rank memory allocation (min/avg/max) = 4.577 | 4.578 | 4.579 Mbytes
Step Temp E_pair E_mol TotEng Press Volume Lx Ly Lz S/CPU 
   18000    296.94013    -10493.71            0   -9609.4729   -3617.5558    792.52286    9.2541656    9.2541656    9.2541656            0 
   18100     302.2155   -10510.108            0   -9610.1623   -9831.4016     790.0576    9.2445601    9.2445601    9.2445601    26.643723 
   18200    301.77465   -10510.786            0   -9612.1523   -4742.5936    787.32931    9.2339065    9.2339065    9.2339065    31.444613 
   18300    304.67888   -10519.836            0   -9612.5544   -207.91876    784.44316    9.2226096    9.2226096    9.2226096    34.180622 
   18400    320.03439    -10568.05            0   -9615.0427   -944.17078    782.14886    9.2136096    9.2136096    9.2136096     47.44881 
   18500    292.62957    -10486.96            0   -9615.5593    12472.617    780.51099    9.2071738    9.2071738    9.2071738     37.90237 
   18600    312.61958   -10551.726            0   -9620.7987     9568.596    779.45181    9.2030071    9.2030071    9.2030071     36.90467 
   18700    303.66329   -10529.061            0    -9624.804    6650.4683    779.05665    9.2014516    9.2014516    9.2014516    32.249722 
   18800    305.41888   -10540.067            0   -9630.5821     1112.992    779.07917    9.2015403    9.2015403    9.2015403    42.565723 
   18900     297.6926   -10524.162            0   -9637.6844    6352.8114    779.56636    9.2034579    9.2034579    9.2034579    42.153872 
   19000    306.70936   -10558.789            0   -9645.4609   -12946.468    780.32177    9.2064297    9.2064297    9.2064297    28.849867 
Loop time of 28.6032 on 16 procs for 1000 steps with 1000 atoms

Performance: 3.021 ns/day, 7.945 hours/ns, 34.961 timesteps/s
94.5% CPU use with 16 MPI tasks x no OpenMP threads

MPI task timing breakdown:
Section |  min time  |  avg time  |  max time  |%varavg| %total
---------------------------------------------------------------
Pair    | 2.2572     | 2.391      | 2.5239     |   4.9 |  8.36
Neigh   | 0.76509    | 0.79541    | 0.83324    |   2.1 |  2.78
Comm    | 0.8777     | 1.0481     | 1.2132     |   9.1 |  3.66
Output  | 16.395     | 16.892     | 24.286     |  46.5 | 59.05
Modify  | 0.073749   | 7.4689     | 7.9656     |  69.9 | 26.11
Other   |            | 0.008201   |            |       |  0.03

Nlocal:    62.5 ave 68 max 57 min
Histogram: 1 0 1 4 2 4 0 3 0 1
Nghost:    1873.75 ave 1896 max 1855 min
Histogram: 2 1 1 3 2 2 2 2 0 1
Neighs:    0 ave 0 max 0 min
Histogram: 16 0 0 0 0 0 0 0 0 0
FullNghs:  18924.2 ave 20688 max 17165 min
Histogram: 1 0 0 4 3 4 1 2 0 1

Total # of neighbors = 302788
Ave neighs/atom = 302.788
Neighbor list builds = 1000
Dangerous builds not checked
Setting up Verlet run ...
  Unit style    : real
  Current step  : 19000
  Time step     : 1
Per MPI rank memory allocation (min/avg/max) = 4.577 | 4.578 | 4.579 Mbytes
Step Temp E_pair E_mol TotEng Press Volume Lx Ly Lz S/CPU 
   19000    306.70936   -10558.789            0   -9645.4609   -12946.468    780.32177    9.2064297    9.2064297    9.2064297            0 
   19100    292.39296   -10524.078            0   -9653.3822    4946.5806    780.85568    9.2085289    9.2085289    9.2085289    33.515486 
   19200    296.11143   -10542.544            0   -9660.7749   -49.051209    781.24993    9.2100785    9.2100785    9.2100785    28.491891 
   19300    297.37428   -10553.115            0   -9667.5848   -3805.0743    781.46808    9.2109356    9.2109356    9.2109356     38.65534 
   19400    298.02919   -10562.572            0   -9675.0919   -3803.9935    781.13971    9.2096453    9.2096453    9.2096453    40.003559 
   19500    293.53476    -10554.74            0   -9680.6439    2470.9961    780.66023    9.2077606    9.2077606    9.2077606    38.650834 
   19600    285.94521   -10536.972            0    -9685.476   -1800.9536    780.13969    9.2057136    9.2057136    9.2057136    33.658927 
   19700    297.31593   -10577.012            0   -9691.6564    10907.527     779.7338    9.2041168    9.2041168    9.2041168    30.272231 
   19800    291.59174   -10562.586            0   -9694.2757    5540.2034    779.78819    9.2043308    9.2043308    9.2043308    43.798825 
   19900    297.57399   -10584.358            0    -9698.233   -11660.315    780.09972    9.2055563    9.2055563    9.2055563    30.718209 
   20000    287.00831   -10553.042            0   -9698.3804     8887.418    780.14668    9.2057411    9.2057411    9.2057411    32.989793 
Loop time of 29.0117 on 16 procs for 1000 steps with 1000 atoms

Performance: 2.978 ns/day, 8.059 hours/ns, 34.469 timesteps/s
94.5% CPU use with 16 MPI tasks x no OpenMP threads

MPI task timing breakdown:
Section |  min time  |  avg time  |  max time  |%varavg| %total
---------------------------------------------------------------
Pair    | 2.2861     | 2.4685     | 2.6567     |   5.5 |  8.51
Neigh   | 0.76696    | 0.81016    | 0.86747    |   2.4 |  2.79
Comm    | 0.74585    | 0.99559    | 1.2224     |  10.8 |  3.43
Output  | 17.242     | 17.708     | 24.649     |  42.6 | 61.04
Modify  | 0.084221   | 7.021      | 7.488      |  67.6 | 24.20
Other   |            | 0.008326   |            |       |  0.03

Nlocal:    62.5 ave 67 max 59 min
Histogram: 4 1 1 1 0 3 2 2 0 2
Nghost:    1864.88 ave 1880 max 1849 min
Histogram: 2 2 1 1 2 0 2 3 2 1
Neighs:    0 ave 0 max 0 min
Histogram: 16 0 0 0 0 0 0 0 0 0
FullNghs:  18923.4 ave 20462 max 17475 min
Histogram: 2 2 2 1 2 0 3 1 1 2

Total # of neighbors = 302774
Ave neighs/atom = 302.774
Neighbor list builds = 1000
Dangerous builds not checked
Setting up Verlet run ...
  Unit style    : real
  Current step  : 20000
  Time step     : 1
Per MPI rank memory allocation (min/avg/max) = 4.577 | 4.578 | 4.579 Mbytes
Step Temp E_pair E_mol TotEng Press Volume Lx Ly Lz S/CPU 
   20000    287.00831   -10553.042            0   -9698.3804     8887.418    780.14668    9.2057411    9.2057411    9.2057411            0 
   20100    297.93091   -10584.672            0   -9697.4841    -14790.73    779.88991     9.204731     9.204731     9.204731    34.074953 
   20200    293.97795   -10565.946            0     -9690.53    2414.1429    779.43261    9.2029315    9.2029315    9.2029315    40.612664 
   20300    298.88819   -10569.828            0   -9679.7895    5508.5695    779.30123    9.2024144    9.2024144    9.2024144    32.119899 
   20400     287.8641   -10522.652            0    -9665.442    6683.3148    779.33198    9.2025354    9.2025354    9.2025354    36.685518 
   20500    291.54729   -10517.962            0   -9649.7836    1409.5848    779.50376    9.2032115    9.2032115    9.2032115    28.561057 
   20600     294.1449   -10512.842            0   -9636.9285    12259.172    779.79697    9.2043653    9.2043653    9.2043653    41.028726 
   20700    297.03306   -10510.569            0   -9626.0548    10532.108    780.44018    9.2068953    9.2068953    9.2068953    32.062444 
   20800    303.82965    -10521.13            0   -9616.3774   -3565.4501     781.2736    9.2101715    9.2101715    9.2101715    44.529857 
   20900    302.24172   -10508.201            0   -9608.1765   -6500.7958     781.7173    9.2119147    9.2119147    9.2119147    40.760823 
   21000    295.67577   -10482.994            0    -9602.522   -5930.6153    781.77612    9.2121458    9.2121458    9.2121458    41.369668 
Loop time of 27.41 on 16 procs for 1000 steps with 1000 atoms

Performance: 3.152 ns/day, 7.614 hours/ns, 36.483 timesteps/s
94.5% CPU use with 16 MPI tasks x no OpenMP threads

MPI task timing breakdown:
Section |  min time  |  avg time  |  max time  |%varavg| %total
---------------------------------------------------------------
Pair    | 2.3385     | 2.4501     | 2.7444     |   5.7 |  8.94
Neigh   | 0.78011    | 0.80596    | 0.87685    |   2.5 |  2.94
Comm    | 0.63886    | 1.0034     | 1.1372     |  11.0 |  3.66
Output  | 15.3       | 15.789     | 23.075     |  47.3 | 57.60
Modify  | 0.066384   | 7.3531     | 7.8421     |  69.4 | 26.83
Other   |            | 0.008295   |            |       |  0.03

Nlocal:    62.5 ave 70 max 59 min
Histogram: 2 3 4 5 0 1 0 0 0 1
Nghost:    1862.94 ave 1884 max 1847 min
Histogram: 1 2 2 3 2 3 0 0 2 1
Neighs:    0 ave 0 max 0 min
Histogram: 16 0 0 0 0 0 0 0 0 0
FullNghs:  18868.6 ave 21335 max 17732 min
Histogram: 1 2 7 4 0 1 0 0 0 1

Total # of neighbors = 301898
Ave neighs/atom = 301.898
Neighbor list builds = 1000
Dangerous builds not checked
Setting up Verlet run ...
  Unit style    : real
  Current step  : 21000
  Time step     : 1
Per MPI rank memory allocation (min/avg/max) = 4.577 | 4.578 | 4.579 Mbytes
Step Temp E_pair E_mol TotEng Press Volume Lx Ly Lz S/CPU 
   21000    295.67577   -10482.994            0    -9602.522   -5930.6153    781.77612    9.2121458    9.2121458    9.2121458            0 
   21100    308.21801   -10516.668            0   -9598.8474   -1593.8633    781.56058    9.2112991    9.2112991    9.2112991    32.257433 
   21200    301.94099    -10495.12            0   -9595.9917   -2508.7539    781.09386    9.2094651    9.2094651    9.2094651    37.560559 
   21300    301.62325   -10491.148            0   -9592.9656   -255.24164    780.61846    9.2075964    9.2075964    9.2075964    42.650712 
   21400    305.66371   -10501.786            0   -9591.5712   -4954.6771    779.96667     9.205033     9.205033     9.205033    29.045774 
   21500    309.18597    -10511.44            0   -9590.7367    9691.9053    779.09767    9.2016131    9.2016131    9.2016131    30.937124 
   21600    309.30474    -10510.98            0   -9589.9238   -8109.7235     778.9543    9.2010486    9.2010486    9.2010486    37.109521 
   21700    303.37154   -10494.479            0   -9591.0901    16788.065    779.10064    9.2016248    9.2016248    9.2016248    41.477543 
   21800    306.11514   -10505.892            0   -9594.3331   -3234.7652    779.87649    9.2046782    9.2046782    9.2046782    33.654854 
   21900    318.46117   -10545.376            0   -9597.0526    -3211.654    780.78627    9.2082561    9.2082561    9.2082561    33.833957 
   22000    310.64084   -10526.643            0   -9601.6073    5771.2548    781.56692     9.211324     9.211324     9.211324    40.660791 
Loop time of 28.2743 on 16 procs for 1000 steps with 1000 atoms

Performance: 3.056 ns/day, 7.854 hours/ns, 35.368 timesteps/s
94.5% CPU use with 16 MPI tasks x no OpenMP threads

MPI task timing breakdown:
Section |  min time  |  avg time  |  max time  |%varavg| %total
---------------------------------------------------------------
Pair    | 2.2121     | 2.3682     | 2.5339     |   5.2 |  8.38
Neigh   | 0.74532    | 0.78319    | 0.83309    |   2.4 |  2.77
Comm    | 0.86086    | 1.0773     | 1.2679     |   9.7 |  3.81
Output  | 15.888     | 16.397     | 23.971     |  48.3 | 57.99
Modify  | 0.06718    | 7.6408     | 8.1495     |  70.7 | 27.02
Other   |            | 0.008102   |            |       |  0.03

Nlocal:    62.5 ave 67 max 59 min
Histogram: 1 5 0 3 0 2 1 0 3 1
Nghost:    1862.56 ave 1877 max 1839 min
Histogram: 1 1 1 0 1 1 3 3 2 3
Neighs:    0 ave 0 max 0 min
Histogram: 16 0 0 0 0 0 0 0 0 0
FullNghs:  18883.4 ave 20213 max 17755 min
Histogram: 1 5 0 3 1 2 0 0 0 4

Total # of neighbors = 302134
Ave neighs/atom = 302.134
Neighbor list builds = 1000
Dangerous builds not checked
Setting up Verlet run ...
  Unit style    : real
  Current step  : 22000
  Time step     : 1
Per MPI rank memory allocation (min/avg/max) = 4.577 | 4.578 | 4.579 Mbytes
Step Temp E_pair E_mol TotEng Press Volume Lx Ly Lz S/CPU 
   22000    310.64084   -10526.643            0   -9601.6073    5771.2548    781.56692     9.211324     9.211324     9.211324            0 
   22100    297.69401   -10492.129            0   -9605.6471     -8502.35    782.50053    9.2149902    9.2149902    9.2149902    28.821898 
   22200    299.69604   -10504.057            0   -9611.6132   -8941.8574    782.92814    9.2166685    9.2166685    9.2166685    35.969338 
   22300     287.4819   -10476.132            0   -9620.0605   -18224.721    782.69175    9.2157408    9.2157408    9.2157408    41.872814 
   22400    293.63434   -10502.251            0   -9627.8581    4447.4209    782.05794    9.2132526    9.2132526    9.2132526    43.125973 
   22500    283.36157   -10477.415            0    -9633.613   -10187.843    781.49157    9.2110279    9.2110279    9.2110279    29.746953 
   22600     294.7947   -10519.121            0   -9641.2726     5049.602    780.69456    9.2078956    9.2078956    9.2078956    38.950125 
   22700    297.08828   -10531.814            0   -9647.1362    5921.7645    779.85502    9.2045937    9.2045937    9.2045937      38.6331 
   22800    282.37091   -10492.946            0   -9652.0935    -4827.643    779.06115    9.2014693    9.2014693    9.2014693    36.279486 
   22900    292.26285   -10526.619            0   -9656.3102    5014.1426    778.21799    9.1981486    9.1981486    9.1981486    35.241245 
   23000    285.06841   -10508.557            0   -9659.6721    2307.1545    777.33732    9.1946776    9.1946776    9.1946776    36.063507 
Loop time of 27.8411 on 16 procs for 1000 steps with 1000 atoms

Performance: 3.103 ns/day, 7.734 hours/ns, 35.918 timesteps/s
94.5% CPU use with 16 MPI tasks x no OpenMP threads

MPI task timing breakdown:
Section |  min time  |  avg time  |  max time  |%varavg| %total
---------------------------------------------------------------
Pair    | 2.3299     | 2.4614     | 2.7079     |   5.8 |  8.84
Neigh   | 0.79439    | 0.81191    | 0.86635    |   2.0 |  2.92
Comm    | 0.74069    | 1.041      | 1.1883     |  10.4 |  3.74
Output  | 15.077     | 15.603     | 23.445     |  51.3 | 56.04
Modify  | 0.07225    | 7.9151     | 8.4414     |  72.0 | 28.43
Other   |            | 0.008371   |            |       |  0.03

Nlocal:    62.5 ave 68 max 59 min
Histogram: 1 3 3 2 2 1 2 1 0 1
Nghost:    1866.88 ave 1884 max 1852 min
Histogram: 1 1 1 4 1 5 1 0 1 1
Neighs:    0 ave 0 max 0 min
Histogram: 16 0 0 0 0 0 0 0 0 0
FullNghs:  18980.6 ave 20935 max 17815 min
Histogram: 1 3 4 3 1 0 2 1 0 1

Total # of neighbors = 303690
Ave neighs/atom = 303.69
Neighbor list builds = 1000
Dangerous builds not checked
Setting up Verlet run ...
  Unit style    : real
  Current step  : 23000
  Time step     : 1
Per MPI rank memory allocation (min/avg/max) = 4.577 | 4.578 | 4.579 Mbytes
Step Temp E_pair E_mol TotEng Press Volume Lx Ly Lz S/CPU 
   23000    285.06841   -10508.557            0   -9659.6721    2307.1545    777.33732    9.1946776    9.1946776    9.1946776            0 
   23100    293.06256   -10535.455            0   -9662.7646    5664.8019    776.38851    9.1909351    9.1909351    9.1909351     37.07176 
   23200    287.28176   -10518.618            0   -9663.1418    8900.9063    775.76134    9.1884596    9.1884596    9.1884596    38.614505 
   23300    292.41944   -10535.519            0   -9664.7437    12432.328    775.85398    9.1888254    9.1888254    9.1888254    29.850743 
   23400     292.5333   -10534.062            0   -9662.9475    8242.9036     776.7529    9.1923728    9.1923728    9.1923728    40.140462 
   23500    307.05708   -10575.614            0   -9661.2504   -11167.304    778.30635    9.1984967    9.1984967    9.1984967    34.968498 
   23600    296.03516   -10536.231            0   -9654.6886   -2738.0817    779.81152    9.2044226    9.2044226    9.2044226      38.9096 
   23700    299.46468   -10538.937            0   -9647.1828     2703.317     781.1745     9.209782     9.209782     9.209782    29.810501 
   23800    297.98576   -10524.523            0    -9637.172   -11907.616    782.54797    9.2151765    9.2151765    9.2151765    35.887914 
   23900    300.53507   -10520.863            0   -9625.9205   -2781.3606    783.74806    9.2198848    9.2198848    9.2198848    34.233993 
   24000    294.29444   -10491.198            0   -9614.8399   -15564.414    785.21806    9.2256454    9.2256454    9.2256454    38.848381 
Loop time of 28.1944 on 16 procs for 1000 steps with 1000 atoms

Performance: 3.064 ns/day, 7.832 hours/ns, 35.468 timesteps/s
94.5% CPU use with 16 MPI tasks x no OpenMP threads

MPI task timing breakdown:
Section |  min time  |  avg time  |  max time  |%varavg| %total
---------------------------------------------------------------
Pair    | 2.3498     | 2.4624     | 2.7072     |   5.1 |  8.73
Neigh   | 0.78439    | 0.80927    | 0.86367    |   2.0 |  2.87
Comm    | 0.72821    | 1.0253     | 1.1361     |   9.5 |  3.64
Output  | 16.729     | 17.176     | 23.833     |  41.5 | 60.92
Modify  | 0.053836   | 6.7127     | 7.1708     |  66.4 | 23.81
Other   |            | 0.008268   |            |       |  0.03

Nlocal:    62.5 ave 68 max 59 min
Histogram: 2 2 3 1 3 1 2 1 0 1
Nghost:    1849.94 ave 1875 max 1833 min
Histogram: 3 1 2 2 2 3 1 1 0 1
Neighs:    0 ave 0 max 0 min
Histogram: 16 0 0 0 0 0 0 0 0 0
FullNghs:  18775.4 ave 20441 max 17680 min
Histogram: 3 1 3 1 3 1 1 2 0 1

Total # of neighbors = 300406
Ave neighs/atom = 300.406
Neighbor list builds = 1000
Dangerous builds not checked
Setting up Verlet run ...
  Unit style    : real
  Current step  : 24000
  Time step     : 1
Per MPI rank memory allocation (min/avg/max) = 4.577 | 4.578 | 4.579 Mbytes
Step Temp E_pair E_mol TotEng Press Volume Lx Ly Lz S/CPU 
   24000    294.29444   -10491.198            0   -9614.8399   -15564.414    785.21806    9.2256454    9.2256454    9.2256454            0 
   24100    307.35902   -10520.324            0    -9605.061    3858.9232    786.18339    9.2294245    9.2294245    9.2294245    35.707225 
   24200    310.84912   -10522.696            0   -9597.0408    -12855.04     786.6672    9.2313173    9.2313173    9.2313173    32.051416 
   24300    299.39262   -10480.068            0   -9588.5275    852.64356    786.26217    9.2297328    9.2297328    9.2297328    35.568415 
   24400     303.8132   -10486.444            0   -9581.7398   -9475.8363    785.29192    9.2259347    9.2259347    9.2259347    32.448617 
   24500    307.24216   -10492.968            0   -9578.0534    6828.7432    784.09872    9.2212596    9.2212596    9.2212596    38.344432 
   24600    319.49987   -10526.432            0   -9575.0156   -4697.3296    783.04112    9.2171118    9.2171118    9.2171118    41.384724 
   24700    310.04093   -10496.409            0   -9573.1599    6353.0314     781.9643    9.2128848    9.2128848    9.2128848    36.878492 
   24800    302.75046   -10474.452            0   -9572.9125     17331.46    781.21392     9.209937     9.209937     9.209937    30.753078 
   24900    307.85873   -10492.522            0   -9575.7709    9036.2001    781.38738    9.2106186    9.2106186    9.2106186    32.720566 
   25000    311.25533   -10506.027            0   -9579.1616    9981.3239    782.43284    9.2147245    9.2147245    9.2147245    44.061096 
Loop time of 28.1272 on 16 procs for 1000 steps with 1000 atoms

Performance: 3.072 ns/day, 7.813 hours/ns, 35.553 timesteps/s
94.5% CPU use with 16 MPI tasks x no OpenMP threads

MPI task timing breakdown:
Section |  min time  |  avg time  |  max time  |%varavg| %total
---------------------------------------------------------------
Pair    | 2.361      | 2.4619     | 2.6751     |   4.7 |  8.75
Neigh   | 0.782      | 0.81397    | 0.87212    |   2.5 |  2.89
Comm    | 0.70859    | 0.98522    | 1.1199     |   9.8 |  3.50
Output  | 16.698     | 17.142     | 23.762     |  41.3 | 60.95
Modify  | 0.10084    | 6.7154     | 7.164      |  65.9 | 23.87
Other   |            | 0.008328   |            |       |  0.03

Nlocal:    62.5 ave 68 max 54 min
Histogram: 1 0 0 1 3 3 4 1 0 3
Nghost:    1862.12 ave 1891 max 1835 min
Histogram: 1 0 3 1 4 2 2 2 0 1
Neighs:    0 ave 0 max 0 min
Histogram: 16 0 0 0 0 0 0 0 0 0
FullNghs:  18877.6 ave 20952 max 15984 min
Histogram: 1 0 0 2 2 4 3 1 0 3

Total # of neighbors = 302042
Ave neighs/atom = 302.042
Neighbor list builds = 1000
Dangerous builds not checked
Setting up Verlet run ...
  Unit style    : real
  Current step  : 25000
  Time step     : 1
Per MPI rank memory allocation (min/avg/max) = 4.577 | 4.578 | 4.579 Mbytes
Step Temp E_pair E_mol TotEng Press Volume Lx Ly Lz S/CPU 
   25000    311.25533   -10506.027            0   -9579.1616    9981.3239    782.43284    9.2147245    9.2147245    9.2147245            0 
   25100    310.32073   -10510.034            0   -9585.9516   -6144.0269    783.94431    9.2206543    9.2206543    9.2206543    41.517017 
   25200    297.07281   -10474.464            0   -9589.8315    2054.6146    785.55405    9.2269611    9.2269611    9.2269611    39.885011 
   25300    302.61022   -10497.782            0   -9596.6609   -9278.9541    787.37625      9.23409      9.23409      9.23409    27.426535 
   25400    287.49675   -10459.346            0   -9603.2294    7251.7639    789.53682    9.2425284    9.2425284    9.2425284    34.441125 
   25500    308.22792   -10532.499            0   -9614.6485   -7398.1239    791.83438    9.2514851    9.2514851    9.2514851    36.632741 
   25600    288.55151   -10483.255            0   -9623.9975   -11072.846    793.58755    9.2583078    9.2583078    9.2583078    34.687735 
   25700    292.17251   -10505.852            0   -9635.8118   -23695.537     794.7684    9.2628976    9.2628976    9.2628976    42.706871 
   25800    288.72794   -10506.842            0   -9647.0591   -12002.086    794.89585    9.2633927    9.2633927    9.2633927    34.524298 
   25900    291.29581   -10525.026            0   -9657.5969   -10137.452    793.79266    9.2591054    9.2591054    9.2591054     33.28683 
   26000    292.23534   -10537.167            0   -9666.9405   -9178.3129    791.87828     9.251656     9.251656     9.251656    34.443796 
Loop time of 28.2237 on 16 procs for 1000 steps with 1000 atoms

Performance: 3.061 ns/day, 7.840 hours/ns, 35.431 timesteps/s
94.5% CPU use with 16 MPI tasks x no OpenMP threads

MPI task timing breakdown:
Section |  min time  |  avg time  |  max time  |%varavg| %total
---------------------------------------------------------------
Pair    | 2.304      | 2.433      | 2.6161     |   5.3 |  8.62
Neigh   | 0.7793     | 0.80985    | 0.85953    |   2.5 |  2.87
Comm    | 0.70714    | 0.94002    | 1.0927     |  10.9 |  3.33
Output  | 16.212     | 16.701     | 23.974     |  46.0 | 59.17
Modify  | 0.058633   | 7.3318     | 7.8206     |  69.4 | 25.98
Other   |            | 0.008298   |            |       |  0.03

Nlocal:    62.5 ave 67 max 57 min
Histogram: 1 0 0 2 2 1 5 3 1 1
Nghost:    1849.5 ave 1864 max 1834 min
Histogram: 1 1 1 1 4 0 5 1 1 1
Neighs:    0 ave 0 max 0 min
Histogram: 16 0 0 0 0 0 0 0 0 0
FullNghs:  18636.5 ave 19888 max 16938 min
Histogram: 1 0 0 4 0 3 3 2 2 1

Total # of neighbors = 298184
Ave neighs/atom = 298.184
Neighbor list builds = 1000
Dangerous builds not checked
Setting up Verlet run ...
  Unit style    : real
  Current step  : 26000
  Time step     : 1
Per MPI rank memory allocation (min/avg/max) = 4.577 | 4.578 | 4.579 Mbytes
Step Temp E_pair E_mol TotEng Press Volume Lx Ly Lz S/CPU 
   26000    292.23534   -10537.167            0   -9666.9405   -9178.3129    791.87828     9.251656     9.251656     9.251656            0 
   26100    300.29341   -10569.917            0   -9675.6948   -13804.443    789.05518    9.2406487    9.2406487    9.2406487     36.36259 
   26200    295.42266   -10561.434            0   -9681.7153    2582.6937    785.45364     9.226568     9.226568     9.226568    28.867124 
   26300    289.50371   -10548.925            0   -9686.8319    21066.248    781.62506    9.2115523    9.2115523    9.2115523    31.790389 
   26400    302.28802   -10592.579            0   -9692.4169    15242.689    778.23613    9.1982201    9.1982201    9.1982201    33.777704 
   26500    294.03526   -10570.344            0   -9694.7568    16650.496    775.86016    9.1888497    9.1888497    9.1888497    40.243276 
   26600      294.186   -10572.856            0   -9696.8198    15600.591    774.96731    9.1853236    9.1853236    9.1853236    37.370528 
   26700    288.24688    -10556.62            0   -9698.2699    14472.339     775.1963    9.1862282    9.1862282    9.1862282    32.336809 
   26800    288.99233   -10558.695            0   -9698.1252    20146.221    776.38185    9.1909088    9.1909088    9.1909088    33.469429 
   26900     287.4104   -10549.037            0   -9693.1779    6978.5441     777.9865    9.1972365    9.1972365    9.1972365    33.572072 
   27000     284.8733   -10530.744            0   -9682.4403    -1172.316    779.87517     9.204673     9.204673     9.204673    38.224377 
Loop time of 29.1562 on 16 procs for 1000 steps with 1000 atoms

Performance: 2.963 ns/day, 8.099 hours/ns, 34.298 timesteps/s
94.5% CPU use with 16 MPI tasks x no OpenMP threads

MPI task timing breakdown:
Section |  min time  |  avg time  |  max time  |%varavg| %total
---------------------------------------------------------------
Pair    | 2.4051     | 2.4992     | 2.7156     |   5.0 |  8.57
Neigh   | 0.79054    | 0.81923    | 0.88074    |   2.4 |  2.81
Comm    | 0.66422    | 0.94486    | 1.0651     |  10.3 |  3.24
Output  | 15.745     | 16.314     | 24.796     |  54.2 | 55.95
Modify  | 0.090807   | 8.5708     | 9.1403     |  74.8 | 29.40
Other   |            | 0.008346   |            |       |  0.03

Nlocal:    62.5 ave 67 max 56 min
Histogram: 1 0 1 2 2 2 2 2 0 4
Nghost:    1848.19 ave 1862 max 1828 min
Histogram: 1 1 0 2 0 4 3 0 2 3
Neighs:    0 ave 0 max 0 min
Histogram: 16 0 0 0 0 0 0 0 0 0
FullNghs:  18934.8 ave 20126 max 16948 min
Histogram: 1 0 1 1 2 2 3 2 0 4

Total # of neighbors = 302956
Ave neighs/atom = 302.956
Neighbor list builds = 1000
Dangerous builds not checked
Setting up Verlet run ...
  Unit style    : real
  Current step  : 27000
  Time step     : 1
Per MPI rank memory allocation (min/avg/max) = 4.577 | 4.578 | 4.579 Mbytes
Step Temp E_pair E_mol TotEng Press Volume Lx Ly Lz S/CPU 
   27000     284.8733   -10530.744            0   -9682.4403    -1172.316    779.87517     9.204673     9.204673     9.204673            0 
   27100    296.26693   -10547.316            0   -9665.0837   -6450.1505    781.69298    9.2118192    9.2118192    9.2118192    33.021283 
   27200    293.77273   -10520.648            0   -9645.8432   -4506.5312    783.07947    9.2172623    9.2172623    9.2172623    40.354799 
   27300    308.29109   -10547.497            0   -9629.4585    -5107.414    784.11122    9.2213086    9.2213086    9.2213086    37.993311 
   27400    301.31379   -10515.833            0   -9618.5722   -3591.2667     784.7058    9.2236388    9.2236388    9.2236388    32.638179 
   27500    298.05187   -10496.384            0    -9608.836   -3914.4203    785.19157    9.2255417    9.2255417    9.2255417    34.609629 
   27600    304.67292   -10509.781            0   -9602.5173   -3452.0048    785.65439     9.227354     9.227354     9.227354    36.445532 
   27700    308.18786   -10514.058            0   -9596.3272   -13560.478    785.73217    9.2276585    9.2276585    9.2276585    39.248641 
   27800     300.8828   -10485.546            0   -9589.5686    8355.6708    785.37081    9.2262436    9.2262436    9.2262436    42.152773 
   27900    299.39663   -10475.511            0   -9583.9585    10579.438    785.14323    9.2253524    9.2253524    9.2253524    34.055015 
   28000    309.27309   -10501.535            0   -9580.5725   -14984.002     784.8486    9.2241983    9.2241983    9.2241983    42.834388 
Loop time of 27.0267 on 16 procs for 1000 steps with 1000 atoms

[...]
  580700    302.59298   -11495.727            0   -10594.656    4713.1742    748.35017     9.078936     9.078936     9.078936    41.146957 
  580800    282.71861   -11427.674            0   -10585.786    5893.2825    748.67704    9.0802577    9.0802577    9.0802577    48.208805 
  580900    298.10578   -11468.661            0   -10580.953    4084.7813    749.30628    9.0828008    9.0828008    9.0828008    47.775044 
  581000    294.02665    -11452.86            0   -10577.299    5009.0485     750.1006    9.0860092    9.0860092    9.0860092    40.768689 
  581100    301.32712   -11471.507            0   -10574.206   -920.37628    750.91001    9.0892761    9.0892761    9.0892761    43.600321 
  581200    297.07076   -11455.763            0   -10571.137   -12004.161     751.4149    9.0913128    9.0913128    9.0913128    47.870519 
  581300    302.39601   -11468.638            0   -10568.154   -2532.9562    751.47719     9.091564     9.091564     9.091564     47.35752 
  581400    304.01197   -11472.447            0   -10567.151   -2679.0544    751.14944    9.0902421    9.0902421    9.0902421    48.959068 
  581500    297.58327   -11450.527            0   -10564.375    2725.6014     750.5776    9.0879347    9.0879347    9.0879347    54.735101 
  581600    291.57858   -11431.733            0   -10563.462    625.22132     749.9969    9.0855905    9.0855905    9.0855905    42.115656 
  581700    298.67811   -11452.244            0   -10562.831    531.15343    749.54523    9.0837662    9.0837662    9.0837662    45.918616 
  581800    301.30175   -11458.738            0   -10561.513    2520.5383    749.19964    9.0823699    9.0823699    9.0823699    38.892857 
  581900    298.57675   -11448.866            0   -10559.756    2115.5737    749.08026    9.0818875    9.0818875    9.0818875    52.596191 
  582000    304.66414   -11468.216            0   -10560.978   -2931.3009    749.17999    9.0822905    9.0822905    9.0822905    51.875712 
  582100    292.52481   -11431.168            0   -10560.079    8671.5784    749.53127    9.0837098    9.0837098    9.0837098    52.221511 
  582200    293.11877   -11433.436            0   -10560.579    2942.6915    750.06273    9.0858562    9.0858562    9.0858562    52.237957 
  582300    301.12795   -11458.213            0   -10561.505   -2239.1502    750.70225    9.0884378    9.0884378    9.0884378    43.587509 
  582400    301.48305   -11460.495            0    -10562.73   -8671.3407    751.26361    9.0907026    9.0907026    9.0907026    42.823209 
  582500    301.05431    -11460.49            0   -10564.002    2252.7662    751.51171    9.0917032    9.0917032    9.0917032    47.267858 
  582600     300.5633     -11460.3            0   -10565.273    1386.9539    751.48987    9.0916152    9.0916152    9.0916152    49.644342 
  582700    299.39433   -11460.166            0    -10568.62    3517.3131    751.10946    9.0900808    9.0900808    9.0900808    46.576056 
  582800    307.44462   -11487.928            0   -10572.411   -2910.0767    750.53313    9.0877552    9.0877552    9.0877552    51.768383 
  582900    288.43609   -11433.368            0   -10574.454   -4372.2032    750.02686    9.0857114    9.0857114    9.0857114    44.189245 
  583000    307.01478   -11493.568            0   -10579.331   -2045.2189    749.49399    9.0835592    9.0835592    9.0835592    32.822382 
  583100     300.8093    -11478.51            0   -10582.751    1354.3456    749.00732    9.0815927    9.0815927    9.0815927    32.882638 
  583200    300.39245   -11481.891            0   -10587.374    4905.9495    748.72289     9.080443     9.080443     9.080443    43.571112 
  583300    299.93357   -11484.556            0   -10591.405    5195.0337    748.76249    9.0806031    9.0806031    9.0806031    36.168282 
  583400    299.18392   -11486.758            0    -10595.84    3915.8106    748.96266    9.0814122    9.0814122    9.0814122    44.268101 
  583500    294.28008   -11474.766            0    -10598.45   -1796.5672    749.22893    9.0824883    9.0824883    9.0824883    45.849732 
  583600    300.02713   -11495.741            0   -10602.312   -2944.7909    749.50144    9.0835893    9.0835893    9.0835893     46.43984 
  583700     301.8998   -11503.102            0   -10604.096   -5093.7632    749.75379    9.0846087    9.0846087    9.0846087    47.961423 
  583800    300.65141   -11500.681            0   -10605.393   -9448.9639     749.8406    9.0849593    9.0849593    9.0849593    51.849153 
  583900    305.87613   -11515.045            0   -10604.198   -8410.7709    749.82417    9.0848929    9.0848929    9.0848929    54.285822 
  584000    292.98212   -11474.429            0   -10601.978   -2808.1828    749.57884     9.083902     9.083902     9.083902    55.341857 
  584100    301.55645    -11496.63            0   -10598.646   -2310.2173    749.31511    9.0828365    9.0828365    9.0828365    42.052953 
  584200    301.52929   -11493.025            0   -10595.122    1925.7216    749.12767    9.0820791    9.0820791    9.0820791    58.253265 
  584300    294.84397   -11464.494            0   -10586.499    -2004.351    749.15689    9.0821972    9.0821972    9.0821972    45.936886 
  584400    291.80036   -11446.802            0   -10577.871   -3607.9634    749.28063    9.0826972    9.0826972    9.0826972    60.516927 
  584500    295.78357   -11448.121            0   -10567.328    3263.5051    749.42633    9.0832859    9.0832859    9.0832859    39.276919 
  584600    300.11356   -11449.805            0   -10556.118    1522.0982    749.71133    9.0844371    9.0844371    9.0844371    52.706796 
  584700    308.73749   -11466.511            0   -10547.143   -2091.7257    750.12192    9.0860953    9.0860953    9.0860953    51.650143 
  584800    305.54213   -11447.192            0    -10537.34    4775.4425    750.67183    9.0883151    9.0883151    9.0883151     47.45084 
  584900    308.10093   -11448.421            0   -10530.949    -509.8558    751.26017    9.0906887    9.0906887    9.0906887    49.908435 
  585000    311.31148   -11453.748            0   -10526.716   -9567.2718    751.83723    9.0930157    9.0930157    9.0930157    39.548693 
  585100     302.5172   -11423.381            0   -10522.536   -6815.6529    752.32272    9.0949725    9.0949725    9.0949725    48.805362 
  585200    312.51386   -11451.673            0    -10521.06    -3630.122     752.5206    9.0957699    9.0957699    9.0957699    46.808988 
  585300    307.80988   -11438.019            0   -10521.414   -1553.6303    752.25916    9.0947164    9.0947164    9.0947164    53.454928 
  585400    309.76585   -11444.157            0   -10521.727   -15982.024    751.70148    9.0924684    9.0924684    9.0924684    51.185685 
  585500    309.30625   -11445.218            0   -10524.156   -2522.1433    750.90656    9.0892622    9.0892622    9.0892622    46.946457 
  585600    302.24637   -11428.202            0   -10528.164   -2620.0277    750.11071      9.08605      9.08605      9.08605    48.188871 
  585700    294.21297   -11409.777            0   -10533.661   -3334.9534    749.40118    9.0831843    9.0831843    9.0831843    45.268079 
  585800    298.99812   -11431.782            0   -10541.417    9554.0697    748.98537     9.081504     9.081504     9.081504    56.625919 
  585900    297.40878   -11437.694            0   -10552.061    4200.6401    748.88348    9.0810922    9.0810922    9.0810922    46.331112 
  586000    303.61073   -11470.886            0   -10566.785    6578.7581    749.14086    9.0821324    9.0821324    9.0821324    53.688744 
  586100    301.61299   -11479.721            0   -10581.569    1902.6991    749.79351    9.0847691    9.0847691    9.0847691    45.934796 
  586200    282.72637   -11437.637            0   -10595.726    5787.0744    750.55158    9.0878297    9.0878297    9.0878297    41.562734 
  586300    301.49459   -11505.696            0   -10607.897   -9012.7601    751.24463     9.090626     9.090626     9.090626    55.419476 
  586400     285.2919    -11462.18            0   -10612.629   -11357.493     751.3018    9.0908566    9.0908566    9.0908566    45.142279 
  586500    288.45567   -11474.484            0   -10615.512   -7558.3891    750.80717    9.0888612    9.0888612    9.0888612    47.833816 
  586600    290.26938   -11479.918            0   -10615.546   -327.19425     750.0031    9.0856155    9.0856155    9.0856155    47.091502 
  586700    293.04003    -11487.98            0   -10615.357    3222.2562      749.104    9.0819834    9.0819834    9.0819834    42.699414 
  586800    287.85804   -11469.523            0   -10612.331    7841.2975    748.36625     9.079001     9.079001     9.079001    37.909972 
  586900    288.72422   -11468.643            0   -10608.872    4050.5962    748.01667    9.0775871    9.0775871    9.0775871    50.340248 
  587000    296.78037   -11489.653            0   -10605.891    6205.8741    748.03018    9.0776418    9.0776418    9.0776418    34.512251 
  587100    286.31394   -11451.889            0   -10599.295    6341.9318     748.4987    9.0795366    9.0795366    9.0795366    48.140136 
  587200    298.97195   -11484.384            0   -10594.097   -210.84512    749.36713    9.0830467    9.0830467    9.0830467    53.771048 
  587300     299.7008   -11479.076            0   -10586.618   -11802.415    750.30619    9.0868392    9.0868392    9.0868392    48.798612 
  587400    283.16778   -11419.703            0   -10576.477   -6665.2138    751.02735    9.0897495    9.0897495    9.0897495    44.396668 
  587500    306.39424   -11482.137            0   -10569.748   -2390.4104     751.4327    9.0913846    9.0913846    9.0913846    48.549634 
  587600     297.7963   -11447.311            0   -10560.524   -7408.3348    751.48604    9.0915997    9.0915997    9.0915997    44.051593 
  587700     298.1301   -11441.979            0   -10554.199   -548.81662    751.23597    9.0905911    9.0905911    9.0905911    47.059098 
  587800    300.28431   -11441.771            0   -10547.576   -1092.2852     750.7471    9.0886188    9.0886188    9.0886188    50.338631 
  587900    308.14193   -11460.786            0   -10543.192    -616.6488     750.1701    9.0862898    9.0862898    9.0862898    42.519692 
  588000    300.12134   -11431.899            0   -10538.189   -4863.3169    749.74874    9.0845883    9.0845883    9.0845883    46.549852 
  588100    302.84217   -11436.988            0   -10535.175     4038.952    749.61344    9.0840417    9.0840417    9.0840417     45.74642 
  588200    297.29189   -11418.062            0   -10532.778    2569.2607     749.8969    9.0851866    9.0851866    9.0851866    41.423101 
  588300    307.91179   -11450.147            0   -10533.239    8174.5626    750.29115    9.0867785    9.0867785    9.0867785    48.908362 
  588400    299.33502   -11423.634            0   -10532.265   -4901.0937    750.94589    9.0894209    9.0894209    9.0894209    52.932922 
  588500    309.45289   -11455.402            0   -10533.904   -1897.4662    751.61326    9.0921127    9.0921127    9.0921127    49.840462 
  588600    296.89192   -11420.171            0   -10536.077    1691.0912    752.07949    9.0939923    9.0939923    9.0939923    46.731491 
  588700    303.76542   -11445.264            0   -10540.703   -2705.6151    752.26599    9.0947439    9.0947439    9.0947439    49.413668 
  588800    295.15442   -11426.285            0   -10547.365   -5486.6942    752.20746    9.0945081    9.0945081    9.0945081    40.654637 
  588900    284.38929   -11404.826            0   -10557.963   -2934.2587    751.75601    9.0926883    9.0926883    9.0926883    50.894159 
  589000    301.01639   -11471.874            0   -10575.498     -3732.31    750.82759    9.0889436    9.0889436    9.0889436    51.333274 
  589100    288.21217   -11449.637            0    -10591.39   -1567.7931    749.69047    9.0843529    9.0843529    9.0843529    41.016271 
  589200    286.68536   -11459.379            0   -10605.679    6446.9598    748.51648    9.0796085    9.0796085    9.0796085    50.664784 
  589300    290.40911   -11481.147            0   -10616.359    4730.6489    747.60892    9.0759374    9.0759374    9.0759374    47.413327 
  589400    280.68249   -11457.902            0   -10622.078     15781.84     746.9605    9.0733127    9.0733127    9.0733127    47.098167 
  589500    286.25177   -11477.118            0    -10624.71    4325.1805    746.80988    9.0727028    9.0727028    9.0727028    50.925591 
  589600    285.66803   -11476.302            0   -10625.631    7780.2422     747.2581    9.0745175    9.0745175    9.0745175    48.564075 
  589700    290.62328   -11490.466            0   -10625.039     7578.836    748.11614    9.0779895    9.0779895    9.0779895    50.399029 
  589800    282.41382   -11462.365            0   -10621.385    -484.0677    749.15219    9.0821782    9.0821782    9.0821782    37.483475 
  589900    295.72758   -11498.136            0    -10617.51   -3478.7487    750.01313     9.085656     9.085656     9.085656    39.512186 
  590000    295.60606   -11490.833            0   -10610.569     1911.084    750.62941    9.0881438    9.0881438    9.0881438    36.905219 
  590100    296.84581   -11488.051            0   -10604.095   -3185.9869    750.90505    9.0892561    9.0892561    9.0892561     40.12382 
  590200    299.11053    -11485.79            0    -10595.09   -8759.3571    750.71791     9.088501     9.088501     9.088501    46.124732 
  590300    302.26085   -11486.373            0   -10586.292   -4334.6375    750.04087     9.085768     9.085768     9.085768    43.464271 
  590400    294.53303    -11454.55            0   -10577.481    1086.5785    749.26153      9.08262      9.08262      9.08262    40.329892 
  590500    294.83009    -11448.41            0   -10570.456    3043.4004    748.62354    9.0800413    9.0800413    9.0800413     52.72795 
  590600     302.5892   -11466.043            0   -10564.984    4699.4955    748.35076    9.0789384    9.0789384    9.0789384    38.708576 
  590700    302.04261   -11459.251            0   -10559.819   -2599.0749    748.56087     9.079788     9.079788     9.079788    42.633844 
  590800     306.6205   -11469.309            0   -10556.246    4643.6976    749.23414    9.0825093    9.0825093    9.0825093    42.092927 
  590900    293.53363   -11427.828            0   -10553.735    7356.7989     750.1625    9.0862591    9.0862591    9.0862591    53.385656 
  591000    302.20209   -11452.295            0   -10552.389   -8949.9743    751.08714    9.0899908    9.0899908    9.0899908    42.226762 
  591100    309.05392   -11472.333            0   -10552.023   -8157.5469    751.67576    9.0923647    9.0923647    9.0923647    37.661496 
  591200    282.18563   -11391.412            0   -10551.112   -1859.7555    751.84109    9.0930313    9.0930313    9.0930313     46.59346 
  591300    301.77741   -11451.636            0   -10552.995     243.8172    751.65548     9.092283     9.092283     9.092283    48.086931 
  591400    308.07348   -11472.109            0   -10554.719   -4436.7036    751.13464    9.0901824    9.0901824    9.0901824    38.696337 
  591500     298.0929   -11443.171            0   -10555.501    -10392.17    750.37837    9.0871306    9.0871306    9.0871306    49.411952 
  591600    306.31384   -11470.076            0   -10557.926    -285.7417    749.49514    9.0835639    9.0835639    9.0835639    51.674459 
  591700    293.65212   -11433.843            0   -10559.397     5631.317    748.86353    9.0810115    9.0810115    9.0810115    42.329003 
  591800     303.3074   -11465.673            0   -10562.475    10474.617    748.61793    9.0800187    9.0800187    9.0800187     47.69288 
  591900    312.04149   -11494.978            0   -10565.772     1630.091    748.77379    9.0806488    9.0806488    9.0806488    49.615273 
  592000    295.86056   -11448.505            0   -10567.483   -1250.8116    749.22043    9.0824539    9.0824539    9.0824539    46.489659 
  592100    300.32888   -11464.259            0   -10569.931    2146.1709    749.85257    9.0850076    9.0850076    9.0850076    43.659775 
  592200    292.60609   -11443.796            0   -10572.465    1540.7003    750.52153    9.0877084    9.0877084    9.0877084    43.843756 
  592300    291.50476    -11443.24            0   -10575.189   -3409.2418    751.16727     9.090314     9.090314     9.090314    33.346041 
  592400     289.3922   -11440.779            0   -10579.019    -7709.984    751.46764    9.0915255    9.0915255    9.0915255    56.264174 
  592500    300.48101   -11482.224            0   -10587.442   -6425.1496    751.27653    9.0907547    9.0907547    9.0907547    50.524906 
  592600    296.96658   -11482.145            0   -10597.829   -1142.8552    750.69244    9.0883982    9.0883982    9.0883982    36.475014 
  592700    302.63941   -11512.426            0   -10611.218   -4950.5616    749.70203    9.0843996    9.0843996    9.0843996    49.563044 
  592800    290.55177   -11488.299            0   -10623.086   -747.90064    748.48031    9.0794622    9.0794622    9.0794622    51.052688 
  592900    296.09352   -11514.982            0   -10633.266    1742.3508    747.33256    9.0748189    9.0748189    9.0748189    46.849787 
  593000    289.39159   -11502.801            0   -10641.043     7497.628    746.48093    9.0713705    9.0713705    9.0713705    37.954215 
  593100    288.60589    -11505.45            0   -10646.031     10805.43    746.29432    9.0706146    9.0706146    9.0706146    50.191442 
  593200    292.89477    -11522.39            0     -10650.2     6191.692    746.85812    9.0728982    9.0728982    9.0728982    66.251418 
  593300    289.77052   -11512.569            0   -10649.682    5613.7582    747.91345    9.0771696    9.0771696    9.0771696    40.044053 
  593400    294.57995   -11524.532            0   -10647.323    703.94458    749.02738    9.0816738    9.0816738    9.0816738    47.884092 
  593500    292.44547   -11512.907            0   -10642.054   -9170.1502    750.00355    9.0856173    9.0856173    9.0856173    42.062935 
  593600    281.84109   -11471.356            0   -10632.081   -10243.148    750.53164    9.0877492    9.0877492    9.0877492    42.315348 
  593700    298.52748   -11511.418            0   -10622.454   -311.51387    750.59288    9.0879964    9.0879964    9.0879964    49.945786 
  593800    287.52229    -11464.83            0   -10608.637    1159.9714    750.39536    9.0871992    9.0871992    9.0871992     53.72445 
  593900    295.59191   -11476.771            0   -10596.549    -7083.843    749.88813    9.0851512    9.0851512    9.0851512    53.533709 
  594000    291.20044    -11453.15            0   -10586.005    5845.1249    749.31166    9.0828226    9.0828226    9.0828226    44.803662 
Loop time of 2258.99 on 16 procs for 100000 steps with 1000 atoms

Performance: 3.825 ns/day, 6.275 hours/ns, 44.267 timesteps/s
94.6% CPU use with 16 MPI tasks x no OpenMP threads

MPI task timing breakdown:
Section |  min time  |  avg time  |  max time  |%varavg| %total
---------------------------------------------------------------
Pair    | 228.55     | 233.75     | 251.39     |  34.3 | 10.35
Neigh   | 79.727     | 81.529     | 86.884     |  18.1 |  3.61
Comm    | 73.202     | 96.198     | 103.23     |  69.5 |  4.26
Output  | 1249.4     | 1286.7     | 1839.9     | 398.2 | 56.96
Modify  | 6.7996     | 559.97     | 597.25     | 603.6 | 24.79
Other   |            | 0.8343     |            |       |  0.04

Nlocal:    62.5 ave 69 max 57 min
Histogram: 1 2 3 2 1 1 2 2 1 1
Nghost:    1911.56 ave 1925 max 1886 min
Histogram: 1 1 0 0 2 2 2 2 2 4
Neighs:    0 ave 0 max 0 min
Histogram: 16 0 0 0 0 0 0 0 0 0
FullNghs:  19641.5 ave 21643 max 17753 min
Histogram: 1 1 3 3 1 1 0 3 2 1

Total # of neighbors = 314264
Ave neighs/atom = 314.264
Neighbor list builds = 100000
Dangerous builds not checked
Total wall time: 3:57:43
