LAMMPS (16 Mar 2018)
Reading data file ...
  orthogonal box = (-4.73784 -4.73784 -4.73784) to (4.73784 4.73784 4.73784)
  2 by 2 by 4 MPI processor grid
  reading atoms ...
  1000 atoms
Reading potential file /home/fs01/ajm529/lammps-16Mar18/potentials/sw_potentials/AG/eps2.23.sw with DATE: 2008-01-29
Neighbor list info ...
  update every 1 steps, delay 0 steps, check no
  max neighbors/atom: 2000, page size: 100000
  master list distance cutoff = 3.836
  ghost atom cutoff = 3.836
  binsize = 1.918, bins = 5 5 5
  1 neighbor lists, perpetual/occasional/extra = 1 0 0
  (1) pair sw, perpetual
      attributes: full, newton on
      pair build: full/bin/atomonly
      stencil: full/bin/3d
      bin: standard
Setting up Verlet run ...
  Unit style    : real
  Current step  : 0
  Time step     : 1
Per MPI rank memory allocation (min/avg/max) = 3.517 | 3.518 | 3.52 Mbytes
Step Temp E_pair E_mol TotEng Press Volume Lx Ly Lz S/CPU 
       0          300    -10084.77            0    -9191.421   -28799.774    850.80835    9.4756843    9.4756843    9.4756843            0 
     100    336.27723   -10199.321            0   -9197.9452   -50715.535    848.97476    9.4688723    9.4688723    9.4688723    49.140175 
     200    329.35152   -10193.984            0   -9213.2318   -45570.844    843.21301    9.4474028    9.4474028    9.4474028    51.875619 
     300    320.58665   -10192.657            0   -9238.0049   -41455.666    834.11086    9.4132861    9.4132861    9.4132861    61.957749 
     400    333.17046   -10257.124            0   -9264.9988    -13748.17    822.70702    9.3701901    9.3701901    9.3701901     52.36766 
     500    331.83445   -10273.627            0   -9285.4808   -18691.502    811.05273    9.3257341    9.3257341    9.3257341    49.457769 
     600    332.82668   -10294.117            0   -9303.0159     9629.167    800.39331    9.2846987    9.2846987    9.2846987    64.845416 
     700    330.68323   -10303.385            0    -9318.667    13388.442    792.48704    9.2540261    9.2540261    9.2540261    40.737857 
     800    339.40644   -10349.005            0   -9338.3105    12256.932    787.30549    9.2338134    9.2338134    9.2338134    57.984289 
     900    331.68663   -10346.855            0    -9359.149    12134.911    783.90063     9.220483     9.220483     9.220483    67.011574 
    1000    343.95664    -10405.48            0   -9381.2355    13956.485    782.12368    9.2135107    9.2135107    9.2135107    50.243913 
Loop time of 18.7122 on 16 procs for 1000 steps with 1000 atoms

Performance: 4.617 ns/day, 5.198 hours/ns, 53.441 timesteps/s
94.5% CPU use with 16 MPI tasks x no OpenMP threads

MPI task timing breakdown:
Section |  min time  |  avg time  |  max time  |%varavg| %total
---------------------------------------------------------------
Pair    | 1.577      | 1.6589     | 2.095      |   9.1 |  8.87
Neigh   | 0.5859     | 0.60971    | 0.75205    |   4.9 |  3.26
Comm    | 0.36981    | 0.94713    | 1.0511     |  16.0 |  5.06
Output  | 10.192     | 10.525     | 15.463     |  39.3 | 56.25
Modify  | 0.02447    | 4.9643     | 5.2981     |  57.2 | 26.53
Other   |            | 0.007084   |            |       |  0.04

Nlocal:    62.5 ave 70 max 59 min
Histogram: 6 3 0 0 2 1 2 1 0 1
Nghost:    1864.88 ave 1879 max 1845 min
Histogram: 1 1 2 1 2 2 0 2 0 5
Neighs:    0 ave 0 max 0 min
Histogram: 16 0 0 0 0 0 0 0 0 0
FullNghs:  18856.1 ave 21344 max 17623 min
Histogram: 5 3 1 0 2 1 3 0 0 1

Total # of neighbors = 301698
Ave neighs/atom = 301.698
Neighbor list builds = 1000
Dangerous builds not checked
Setting up Verlet run ...
  Unit style    : real
  Current step  : 1000
  Time step     : 1
Per MPI rank memory allocation (min/avg/max) = 3.768 | 4.476 | 4.579 Mbytes
Step Temp E_pair E_mol TotEng Press Volume Lx Ly Lz S/CPU 
    1000    343.95664    -10405.48            0   -9381.2355    13956.485    782.12368    9.2135107    9.2135107    9.2135107            0 
    1100    321.42827   -10360.204            0   -9403.0458    25742.379    781.80435    9.2122566    9.2122566    9.2122566    56.365566 
    1200    322.71541   -10386.654            0   -9425.6631    27811.044    782.79379    9.2161413    9.2161413    9.2161413    60.435346 
    1300    328.67888   -10428.454            0   -9449.7042    11883.137    784.84565    9.2241867    9.2241867    9.2241867    47.227172 
    1400    306.32628   -10379.762            0   -9467.5749   -14805.562    787.49199    9.2345425    9.2345425    9.2345425    56.812534 
    1500    314.38237   -10422.127            0     -9485.95   -4723.2059      789.754    9.2433758    9.2433758    9.2433758    54.666691 
    1600    312.42479   -10433.737            0   -9503.3896    -16683.42    791.72342    9.2510529    9.2510529    9.2510529    48.825808 
    1700     312.7655   -10451.367            0   -9520.0045    -10517.35    792.80463    9.2552622    9.2552622    9.2552622    65.021962 
    1800    306.67219   -10448.364            0   -9535.1468   -20226.193    792.60837    9.2544984    9.2544984    9.2544984    58.939507 
    1900    310.86283   -10477.024            0   -9551.3272   -10377.738    791.28193     9.249333     9.249333     9.249333     50.88136 
    2000    311.09056   -10492.177            0   -9565.8026   -18343.046    789.12467    9.2409199    9.2409199    9.2409199    45.849288 
Loop time of 18.5648 on 16 procs for 1000 steps with 1000 atoms

Performance: 4.654 ns/day, 5.157 hours/ns, 53.865 timesteps/s
94.7% CPU use with 16 MPI tasks x no OpenMP threads

MPI task timing breakdown:
Section |  min time  |  avg time  |  max time  |%varavg| %total
---------------------------------------------------------------
Pair    | 1.6537     | 1.801      | 2.4891     |  15.0 |  9.70
Neigh   | 0.59018    | 0.62826    | 0.81512    |   7.0 |  3.38
Comm    | 0.34595    | 1.2202     | 1.4064     |  23.2 |  6.57
Output  | 9.9025     | 10.217     | 14.882     |  37.7 | 55.04
Modify  | 0.024123   | 4.6909     | 5.0069     |  55.6 | 25.27
Other   |            | 0.00718    |            |       |  0.04

Nlocal:    62.5 ave 69 max 58 min
Histogram: 5 1 0 2 3 0 1 2 1 1
Nghost:    1835.88 ave 1868 max 1811 min
Histogram: 3 0 4 1 1 2 1 2 1 1
Neighs:    0 ave 0 max 0 min
Histogram: 16 0 0 0 0 0 0 0 0 0
FullNghs:  18691.9 ave 20905 max 17274 min
Histogram: 3 2 2 2 2 1 1 2 0 1

Total # of neighbors = 299070
Ave neighs/atom = 299.07
Neighbor list builds = 1000
Dangerous builds not checked
Setting up Verlet run ...
  Unit style    : real
  Current step  : 2000
  Time step     : 1
Per MPI rank memory allocation (min/avg/max) = 4.576 | 4.578 | 4.579 Mbytes
Step Temp E_pair E_mol TotEng Press Volume Lx Ly Lz S/CPU 
    2000    311.09056   -10492.177            0   -9565.8026   -18343.046    789.12467    9.2409199    9.2409199    9.2409199            0 
    2100    311.38877   -10506.524            0   -9579.2612    4388.5847    786.28707    9.2298302    9.2298302    9.2298302    63.034726 
    2200    303.10706    -10493.02            0   -9590.4186    12893.208    783.53249    9.2190394    9.2190394    9.2190394    60.327995 
    2300    297.28827   -10487.423            0   -9602.1491   -124.59835    781.28953    9.2102341    9.2102341    9.2102341    47.492158 
    2400    301.85044   -10510.141            0   -9611.2822   -3122.7594    779.24071    9.2021762    9.2021762    9.2021762    55.378005 
    2500     298.3744   -10506.218            0   -9617.7101    1920.2188    777.48009    9.1952405    9.1952405    9.1952405    57.142522 
    2600    296.29635   -10507.017            0   -9624.6973   -12823.438    775.78104    9.1885374    9.1885374    9.1885374    59.339822 
    2700    296.06209   -10511.149            0   -9629.5267   -940.94552    773.99049    9.1814627    9.1814627    9.1814627    52.589859 
    2800    306.61159   -10546.905            0   -9633.8681    20886.224    772.60418    9.1759777    9.1759777    9.1759777    66.001799 
    2900    294.76723   -10514.204            0   -9636.4379    13926.735    771.94103    9.1733516    9.1733516    9.1733516    53.804916 
    3000    293.59841   -10514.939            0   -9640.6529    32962.834    772.31662    9.1748392    9.1748392    9.1748392    45.139948 
Loop time of 18.0812 on 16 procs for 1000 steps with 1000 atoms

Performance: 4.778 ns/day, 5.023 hours/ns, 55.306 timesteps/s
94.7% CPU use with 16 MPI tasks x no OpenMP threads

MPI task timing breakdown:
Section |  min time  |  avg time  |  max time  |%varavg| %total
---------------------------------------------------------------
Pair    | 1.7225     | 1.8418     | 2.442      |  12.9 | 10.19
Neigh   | 0.59918    | 0.63039    | 0.80802    |   6.3 |  3.49
Comm    | 0.36606    | 1.1433     | 1.2931     |  21.0 |  6.32
Output  | 9.6546     | 9.9568     | 14.433     |  36.6 | 55.07
Modify  | 0.023843   | 4.5017     | 4.8048     |  54.5 | 24.90
Other   |            | 0.007223   |            |       |  0.04

Nlocal:    62.5 ave 68 max 57 min
Histogram: 2 1 2 0 2 4 1 1 1 2
Nghost:    1868.88 ave 1896 max 1842 min
Histogram: 1 0 2 2 3 4 1 1 1 1
Neighs:    0 ave 0 max 0 min
Histogram: 16 0 0 0 0 0 0 0 0 0
FullNghs:  19122.2 ave 20828 max 17403 min
Histogram: 1 2 2 0 2 4 1 1 2 1

Total # of neighbors = 305956
Ave neighs/atom = 305.956
Neighbor list builds = 1000
Dangerous builds not checked
Setting up Verlet run ...
  Unit style    : real
  Current step  : 3000
  Time step     : 1
Per MPI rank memory allocation (min/avg/max) = 4.576 | 4.578 | 4.579 Mbytes
Step Temp E_pair E_mol TotEng Press Volume Lx Ly Lz S/CPU 
    3000    293.59841   -10514.939            0   -9640.6529    32962.834    772.31662    9.1748392    9.1748392    9.1748392            0 
    3100    304.74962   -10550.552            0   -9643.0601    14350.006     774.0742    9.1817937    9.1817937    9.1817937    44.441622 
    3200    290.00077   -10508.736            0   -9645.1632    3624.5713    776.68822    9.1921176    9.1921176    9.1921176    65.329884 
    3300    297.65714   -10532.688            0   -9646.3161    1983.9594    779.69327    9.2039573    9.2039573    9.2039573    49.434705 
    3400    298.46421   -10537.061            0   -9648.2858    1495.2262    783.04911    9.2171432    9.2171432    9.2171432    60.272584 
    3500    291.62132   -10514.998            0   -9646.5995   -830.71292    786.54543     9.230841     9.230841     9.230841    53.605184 
    3600    292.61926   -10515.212            0    -9643.842   -1530.7265    789.56401    9.2426345    9.2426345    9.2426345    50.225211 
    3700    289.79341   -10502.597            0   -9639.6422   -12143.666    791.72285    9.2510507    9.2510507    9.2510507    53.278191 
    3800    291.53131   -10500.846            0   -9632.7157   -18030.408    792.94635    9.2558136    9.2558136    9.2558136    58.251141 
    3900    283.17284   -10467.976            0   -9624.7357   -11089.692    793.32301    9.2572789    9.2572789    9.2572789    50.902697 
    4000    283.58939   -10459.603            0   -9615.1227   -21685.349    792.68222    9.2547858    9.2547858    9.2547858    38.778887 
Loop time of 19.4563 on 16 procs for 1000 steps with 1000 atoms

Performance: 4.441 ns/day, 5.405 hours/ns, 51.397 timesteps/s
94.7% CPU use with 16 MPI tasks x no OpenMP threads

MPI task timing breakdown:
Section |  min time  |  avg time  |  max time  |%varavg| %total
---------------------------------------------------------------
Pair    | 1.6709     | 1.8053     | 2.4354     |  13.0 |  9.28
Neigh   | 0.59802    | 0.6289     | 0.81508    |   6.5 |  3.23
Comm    | 0.33404    | 1.1499     | 1.3125     |  21.1 |  5.91
Output  | 11.121     | 11.419     | 15.839     |  33.8 | 58.69
Modify  | 0.02395    | 4.4459     | 4.7448     |  54.1 | 22.85
Other   |            | 0.007175   |            |       |  0.04

Nlocal:    62.5 ave 67 max 60 min
Histogram: 3 3 2 0 3 3 0 1 0 1
Nghost:    1843.44 ave 1859 max 1822 min
Histogram: 1 2 1 0 1 3 2 2 1 3
Neighs:    0 ave 0 max 0 min
Histogram: 16 0 0 0 0 0 0 0 0 0
FullNghs:  18619.2 ave 19858 max 17726 min
Histogram: 3 2 1 0 5 0 3 0 1 1

Total # of neighbors = 297908
Ave neighs/atom = 297.908
Neighbor list builds = 1000
Dangerous builds not checked
Setting up Verlet run ...
  Unit style    : real
  Current step  : 4000
  Time step     : 1
Per MPI rank memory allocation (min/avg/max) = 4.576 | 4.578 | 4.579 Mbytes
Step Temp E_pair E_mol TotEng Press Volume Lx Ly Lz S/CPU 
    4000    283.58939   -10459.603            0   -9615.1227   -21685.349    792.68222    9.2547858    9.2547858    9.2547858            0 
    4100     301.5523   -10503.451            0   -9605.4801   -5836.1976    791.48741    9.2501336    9.2501336    9.2501336    47.691325 
    4200    305.48442   -10504.421            0    -9594.741    4090.9632    790.28676    9.2454539    9.2454539    9.2454539    43.330077 
    4300    307.03351   -10498.854            0   -9584.5607   -9452.4869    789.06901    9.2407027    9.2407027    9.2407027    54.154541 
    4400    312.50515   -10506.689            0   -9576.1021   -3838.8698    787.55809    9.2348008    9.2348008    9.2348008    62.954432 
    4500    302.66569   -10469.131            0   -9567.8446    154.87357    786.42401     9.230366     9.230366     9.230366    51.677321 
    4600    300.32747   -10455.598            0   -9561.2744    17789.295    785.71511    9.2275917    9.2275917    9.2275917    62.312612 
    4700    308.88549   -10477.055            0   -9557.2463    4001.9969    785.49597    9.2267337    9.2267337    9.2267337    63.038549 
    4800    303.03418   -10453.855            0   -9551.4706    4689.5551    785.75018     9.227729     9.227729     9.227729    62.246587 
    4900    310.17775   -10471.793            0    -9548.137   -5621.4475     786.4564    9.2304927    9.2304927    9.2304927     43.64829 
    5000    309.03278   -10465.602            0   -9545.3552    11027.387    787.06736    9.2328823    9.2328823    9.2328823    65.464613 
Loop time of 18.3911 on 16 procs for 1000 steps with 1000 atoms

Performance: 4.698 ns/day, 5.109 hours/ns, 54.374 timesteps/s
94.8% CPU use with 16 MPI tasks x no OpenMP threads

MPI task timing breakdown:
Section |  min time  |  avg time  |  max time  |%varavg| %total
---------------------------------------------------------------
Pair    | 1.6605     | 1.8009     | 2.4647     |  15.6 |  9.79
Neigh   | 0.59024    | 0.62941    | 0.82424    |   7.5 |  3.42
Comm    | 0.37913    | 1.2382     | 1.4175     |  24.1 |  6.73
Output  | 9.7819     | 10.092     | 14.69      |  37.4 | 54.88
Modify  | 0.024693   | 4.6232     | 4.9341     |  55.2 | 25.14
Other   |            | 0.00713    |            |       |  0.04

Nlocal:    62.5 ave 70 max 53 min
Histogram: 1 0 0 2 2 5 2 2 0 2
Nghost:    1854.75 ave 1872 max 1827 min
Histogram: 1 1 0 2 0 3 2 2 2 3
Neighs:    0 ave 0 max 0 min
Histogram: 16 0 0 0 0 0 0 0 0 0
FullNghs:  18752.9 ave 20810 max 15697 min
Histogram: 1 0 0 1 3 3 2 4 0 2

Total # of neighbors = 300046
Ave neighs/atom = 300.046
Neighbor list builds = 1000
Dangerous builds not checked
Setting up Verlet run ...
  Unit style    : real
  Current step  : 5000
  Time step     : 1
Per MPI rank memory allocation (min/avg/max) = 4.576 | 4.578 | 4.579 Mbytes
Step Temp E_pair E_mol TotEng Press Volume Lx Ly Lz S/CPU 
    5000    309.03278   -10465.602            0   -9545.3552    11027.387    787.06736    9.2328823    9.2328823    9.2328823            0 
    5100     308.0488   -10460.583            0   -9543.2659    1623.4675    787.89154    9.2361039    9.2361039    9.2361039    50.692028 
    5200    299.26497   -10433.597            0   -9542.4366   -13830.739    788.81704    9.2397189    9.2397189    9.2397189    51.769927 
    5300    298.47288   -10432.687            0    -9543.886   -8874.6599     789.3649    9.2418576    9.2418576    9.2418576    39.926443 
    5400    305.75119   -10457.868            0   -9547.3927   -4288.8708    789.46996    9.2422675    9.2422675    9.2422675    55.270612 
    5500    300.43782    -10445.01            0   -9550.3578   -7835.3567    789.24938    9.2414067    9.2414067    9.2414067    48.643499 
    5600    297.20899   -10439.502            0   -9554.4648   -19581.978    788.33294    9.2378284    9.2378284    9.2378284    62.579461 
    5700    299.70913   -10452.448            0   -9559.9656   -7389.2511    786.32329    9.2299719    9.2299719    9.2299719    52.298273 
    5800    308.16596   -10486.468            0    -9568.802   -1525.7427    783.75683    9.2199192    9.2199192    9.2199192    53.447971 
    5900    296.75882   -10461.585            0   -9577.8884    13734.543     781.1646    9.2097431    9.2097431    9.2097431    62.616621 
    6000    290.49605   -10454.494            0    -9589.446    2556.7958    778.89015     9.200796     9.200796     9.200796    47.802703 
Loop time of 19.344 on 16 procs for 1000 steps with 1000 atoms

Performance: 4.466 ns/day, 5.373 hours/ns, 51.696 timesteps/s
94.6% CPU use with 16 MPI tasks x no OpenMP threads

MPI task timing breakdown:
Section |  min time  |  avg time  |  max time  |%varavg| %total
---------------------------------------------------------------
Pair    | 1.6442     | 1.7697     | 2.1451     |   8.7 |  9.15
Neigh   | 0.58764    | 0.619      | 0.73885    |   4.5 |  3.20
Comm    | 0.47634    | 0.97144    | 1.1278     |  15.3 |  5.02
Output  | 11.528     | 11.808     | 15.952     |  31.1 | 61.04
Modify  | 0.023499   | 4.1685     | 4.4488     |  52.4 | 21.55
Other   |            | 0.007132   |            |       |  0.04

Nlocal:    62.5 ave 68 max 59 min
Histogram: 2 6 1 0 0 1 3 1 0 2
Nghost:    1860.75 ave 1890 max 1842 min
Histogram: 3 3 1 2 0 3 2 0 1 1
Neighs:    0 ave 0 max 0 min
Histogram: 16 0 0 0 0 0 0 0 0 0
FullNghs:  18965.1 ave 20759 max 17829 min
Histogram: 6 1 2 0 0 0 4 1 0 2

Total # of neighbors = 303442
Ave neighs/atom = 303.442
Neighbor list builds = 1000
Dangerous builds not checked
Setting up Verlet run ...
  Unit style    : real
  Current step  : 6000
  Time step     : 1
Per MPI rank memory allocation (min/avg/max) = 4.576 | 4.578 | 4.579 Mbytes
Step Temp E_pair E_mol TotEng Press Volume Lx Ly Lz S/CPU 
    6000    290.49605   -10454.494            0    -9589.446    2556.7958    778.89015     9.200796     9.200796     9.200796            0 
    6100    288.57742   -10460.217            0   -9600.8832   -3695.0014    776.94059    9.1931131    9.1931131    9.1931131    47.639863 
    6200    291.91565    -10481.85            0   -9612.5746    2924.3905    775.39862    9.1870273    9.1870273    9.1870273    48.568466 
    6300    292.14199   -10491.678            0   -9621.7289    3874.7279    774.26841    9.1825615    9.1825615    9.1825615    46.040928 
    6400    284.26465   -10474.866            0   -9628.3742    13721.393    773.96558    9.1813642    9.1813642    9.1813642     59.36524 
    6500    291.31339   -10501.641            0   -9634.1599     12326.32    774.53533    9.1836166    9.1836166    9.1836166    52.636419 
    6600     294.3714   -10513.471            0   -9636.8832     4388.594    776.06828    9.1896713    9.1896713    9.1896713     40.04075 
    6700    298.47646   -10527.046            0   -9638.2341    2234.1831    778.24228    9.1982443    9.1982443    9.1982443    62.232776 
    6800    292.32315   -10508.934            0   -9638.4453    504.89571    780.62375    9.2076172    9.2076172    9.2076172    46.988067 
    6900    295.74172   -10519.088            0   -9638.4192     13162.47    782.90726    9.2165866    9.2165866    9.2165866    44.195745 
    7000     294.3895   -10514.165            0   -9637.5238   -1973.9245    784.99254    9.2247621    9.2247621    9.2247621    56.282338 
Loop time of 20.1863 on 16 procs for 1000 steps with 1000 atoms

Performance: 4.280 ns/day, 5.607 hours/ns, 49.539 timesteps/s
94.6% CPU use with 16 MPI tasks x no OpenMP threads

MPI task timing breakdown:
Section |  min time  |  avg time  |  max time  |%varavg| %total
---------------------------------------------------------------
Pair    | 1.7293     | 1.8129     | 2.2215     |   8.2 |  8.98
Neigh   | 0.59929    | 0.62211    | 0.7437     |   4.1 |  3.08
Comm    | 0.42609    | 0.95606    | 1.0598     |  14.6 |  4.74
Output  | 11.859     | 12.169     | 16.763     |  34.0 | 60.28
Modify  | 0.023444   | 4.6189     | 4.9292     |  55.2 | 22.88
Other   |            | 0.007171   |            |       |  0.04

Nlocal:    62.5 ave 67 max 58 min
Histogram: 2 0 1 3 4 1 1 0 2 2
Nghost:    1859.38 ave 1871 max 1844 min
Histogram: 1 2 0 2 1 3 0 3 0 4
Neighs:    0 ave 0 max 0 min
Histogram: 16 0 0 0 0 0 0 0 0 0
FullNghs:  18820.8 ave 20321 max 17464 min
Histogram: 2 0 2 3 4 1 0 0 2 2

Total # of neighbors = 301132
Ave neighs/atom = 301.132
Neighbor list builds = 1000
Dangerous builds not checked
Setting up Verlet run ...
  Unit style    : real
  Current step  : 7000
  Time step     : 1
Per MPI rank memory allocation (min/avg/max) = 4.576 | 4.578 | 4.579 Mbytes
Step Temp E_pair E_mol TotEng Press Volume Lx Ly Lz S/CPU 
    7000     294.3895   -10514.165            0   -9637.5238   -1973.9245    784.99254    9.2247621    9.2247621    9.2247621            0 
    7100     292.6356    -10505.59            0   -9634.1712   -11830.735    786.71354    9.2314986    9.2314986    9.2314986    61.076626 
    7200     288.7128   -10489.104            0   -9629.3662    -18536.25    787.70797    9.2353866    9.2353866    9.2353866    49.877185 
    7300    302.10841    -10524.64            0   -9625.0124   -16502.304    787.75761    9.2355806    9.2355806    9.2355806    63.559124 
    7400    297.07154   -10503.721            0    -9619.093    3145.1806    787.06291    9.2328649    9.2328649    9.2328649    69.842762 
    7500    300.33074   -10508.511            0   -9614.1778   -6931.3365    786.27989    9.2298021    9.2298021    9.2298021    46.997759 
    7600    290.53132   -10473.955            0   -9608.8025    1000.5609    784.96601    9.2246582    9.2246582    9.2246582    63.400661 
    7700     297.9661   -10491.024            0   -9603.7322   -5070.6275    783.64213    9.2194694    9.2194694    9.2194694     56.76396 
    7800    294.38012   -10476.094            0   -9599.4804    2017.3651    782.16944    9.2136904    9.2136904    9.2136904    38.459646 
    7900     301.1713   -10494.568            0   -9597.7317    6174.8827    780.82786    9.2084196    9.2084196    9.2084196     55.23447 
    8000    303.42825   -10499.896            0   -9596.3384    12988.911    779.89859    9.2047651    9.2047651    9.2047651    47.917939 
Loop time of 18.6116 on 16 procs for 1000 steps with 1000 atoms

Performance: 4.642 ns/day, 5.170 hours/ns, 53.730 timesteps/s
94.7% CPU use with 16 MPI tasks x no OpenMP threads

MPI task timing breakdown:
Section |  min time  |  avg time  |  max time  |%varavg| %total
---------------------------------------------------------------
Pair    | 1.6905     | 1.8169     | 2.4555     |  14.4 |  9.76
Neigh   | 0.59715    | 0.63081    | 0.82598    |   7.3 |  3.39
Comm    | 0.38249    | 1.2166     | 1.3742     |  22.9 |  6.54
Output  | 10.173     | 10.473     | 14.914     |  35.4 | 56.27
Modify  | 0.024516   | 4.4672     | 4.7675     |  54.3 | 24.00
Other   |            | 0.007162   |            |       |  0.04

Nlocal:    62.5 ave 67 max 57 min
Histogram: 1 0 1 1 3 2 1 3 3 1
Nghost:    1871.81 ave 1892 max 1855 min
Histogram: 1 2 3 1 2 3 0 2 1 1
Neighs:    0 ave 0 max 0 min
Histogram: 16 0 0 0 0 0 0 0 0 0
FullNghs:  18924.6 ave 20378 max 17158 min
Histogram: 1 1 0 1 5 1 3 0 3 1

Total # of neighbors = 302794
Ave neighs/atom = 302.794
Neighbor list builds = 1000
Dangerous builds not checked
Setting up Verlet run ...
  Unit style    : real
  Current step  : 8000
  Time step     : 1
Per MPI rank memory allocation (min/avg/max) = 4.576 | 4.578 | 4.579 Mbytes
Step Temp E_pair E_mol TotEng Press Volume Lx Ly Lz S/CPU 
    8000    303.42825   -10499.896            0   -9596.3384    12988.911    779.89859    9.2047651    9.2047651    9.2047651            0 
    8100    312.31939   -10528.256            0   -9598.2226    19988.453     779.5037    9.2032113    9.2032113    9.2032113    48.688962 
    8200    304.55084   -10505.607            0   -9598.7064   -7852.0299    779.94564    9.2049502    9.2049502    9.2049502    64.938362 
    8300    301.89624   -10498.406            0   -9599.4108    1001.7292    780.64473    9.2076996    9.2076996    9.2076996    55.704145 
    8400    299.58966   -10492.859            0   -9600.7319    6040.5019    781.58539    9.2113965    9.2113965    9.2113965    43.182797 
    8500    294.60117   -10478.457            0   -9601.1855    12073.695    782.46867    9.2148652    9.2148652    9.2148652    59.613295 
    8600    310.84783   -10528.829            0    -9603.177     12117.88    783.63228    9.2194307    9.2194307    9.2194307    57.065607 
    8700    299.58213    -10498.18            0   -9606.0759   -5299.4942    785.18011    9.2254968    9.2254968    9.2254968    51.008699 
    8800    295.01265   -10486.115            0   -9607.6177   -4189.1374     786.5612    9.2309027    9.2309027    9.2309027    50.365732 
    8900    300.96181   -10504.624            0   -9608.4115   -8242.6048    787.69898    9.2353515    9.2353515    9.2353515    54.966711 
    9000    299.40663   -10500.542            0   -9608.9606   -7848.0333    788.28573     9.237644     9.237644     9.237644     64.73471 
Loop time of 18.4446 on 16 procs for 1000 steps with 1000 atoms

Performance: 4.684 ns/day, 5.123 hours/ns, 54.217 timesteps/s
94.7% CPU use with 16 MPI tasks x no OpenMP threads

MPI task timing breakdown:
Section |  min time  |  avg time  |  max time  |%varavg| %total
---------------------------------------------------------------
Pair    | 1.6535     | 1.828      | 2.4996     |  14.4 |  9.91
Neigh   | 0.5848     | 0.63264    | 0.82834    |   7.1 |  3.43
Comm    | 0.42745    | 1.2946     | 1.5166     |  22.0 |  7.02
Output  | 10.225     | 10.506     | 14.656     |  33.1 | 56.96
Modify  | 0.024684   | 4.1765     | 4.4576     |  52.5 | 22.64
Other   |            | 0.007203   |            |       |  0.04

Nlocal:    62.5 ave 67 max 59 min
Histogram: 1 2 5 0 0 2 3 1 1 1
Nghost:    1845.38 ave 1865 max 1828 min
Histogram: 2 0 3 2 2 2 2 1 1 1
Neighs:    0 ave 0 max 0 min
Histogram: 16 0 0 0 0 0 0 0 0 0
FullNghs:  18714.2 ave 20251 max 17530 min
Histogram: 2 1 3 2 1 3 1 1 1 1

Total # of neighbors = 299428
Ave neighs/atom = 299.428
Neighbor list builds = 1000
Dangerous builds not checked
Setting up Verlet run ...
  Unit style    : real
  Current step  : 9000
  Time step     : 1
Per MPI rank memory allocation (min/avg/max) = 4.576 | 4.578 | 4.579 Mbytes
Step Temp E_pair E_mol TotEng Press Volume Lx Ly Lz S/CPU 
    9000    299.40663   -10500.542            0   -9608.9606   -7848.0333    788.28573     9.237644     9.237644     9.237644            0 
    9100    298.75615   -10497.388            0   -9607.7431   -8224.2195    788.29574    9.2376831    9.2376831    9.2376831    45.837485 
    9200    304.23047   -10513.961            0   -9608.0148   -2694.3638    787.35057    9.2339896    9.2339896    9.2339896    63.293301 
    9300    300.03137   -10500.233            0   -9606.7911   -10155.966    785.86608    9.2281826    9.2281826    9.2281826    73.615576 
    9400    298.94635   -10495.863            0   -9605.6514   -6202.6135     783.8764     9.220388     9.220388     9.220388    54.068726 
    9500    299.66325   -10495.427            0   -9603.0808    5619.2876     782.1988    9.2138057    9.2138057    9.2138057    59.040903 
    9600    300.23037    -10495.85            0   -9601.8152    12581.988    780.78465    9.2082497    9.2082497    9.2082497    70.331242 
    9700    306.94331   -10514.078            0   -9600.0532    5196.2136    779.22294    9.2021062    9.2021062    9.2021062     60.10401 
    9800    297.83355   -10484.268            0   -9597.3701   -2587.0649    778.09172    9.1976511    9.1976511    9.1976511    48.272885 
    9900    306.85615   -10507.937            0   -9594.1713    8721.9022     777.1089    9.1937769    9.1937769    9.1937769    61.262385 
   10000     300.5727   -10487.242            0    -9592.188     7831.632     776.8464    9.1927416    9.1927416    9.1927416    60.776996 
Loop time of 17.0981 on 16 procs for 1000 steps with 1000 atoms

Performance: 5.053 ns/day, 4.749 hours/ns, 58.486 timesteps/s
94.7% CPU use with 16 MPI tasks x no OpenMP threads

MPI task timing breakdown:
Section |  min time  |  avg time  |  max time  |%varavg| %total
---------------------------------------------------------------
Pair    | 1.6546     | 1.7762     | 2.1883     |   8.6 | 10.39
Neigh   | 0.58561    | 0.61654    | 0.74203    |   4.4 |  3.61
Comm    | 0.37113    | 0.90798    | 1.0575     |  15.6 |  5.31
Output  | 9.2794     | 9.5633     | 13.765     |  35.1 | 55.93
Modify  | 0.022985   | 4.227      | 4.5118     |  52.8 | 24.72
Other   |            | 0.007066   |            |       |  0.04

Nlocal:    62.5 ave 67 max 56 min
Histogram: 1 1 1 1 2 1 2 2 2 3
Nghost:    1868.25 ave 1887 max 1846 min
Histogram: 1 0 2 2 3 1 2 2 1 2
Neighs:    0 ave 0 max 0 min
Histogram: 16 0 0 0 0 0 0 0 0 0
FullNghs:  18997.6 ave 20515 max 16932 min
Histogram: 1 0 2 1 2 2 1 3 3 1

Total # of neighbors = 303962
Ave neighs/atom = 303.962
Neighbor list builds = 1000
Dangerous builds not checked
Setting up Verlet run ...
  Unit style    : real
  Current step  : 10000
  Time step     : 1
Per MPI rank memory allocation (min/avg/max) = 4.576 | 4.578 | 4.579 Mbytes
Step Temp E_pair E_mol TotEng Press Volume Lx Ly Lz S/CPU 
   10000     300.5727   -10487.242            0    -9592.188     7831.632     776.8464    9.1927416    9.1927416    9.1927416            0 
   10100    302.96907   -10492.589            0   -9590.3985    14744.035    777.45095    9.1951256    9.1951256    9.1951256      38.4691 
   10200    310.32143   -10513.695            0   -9589.6104    3251.0487    778.33105     9.198594     9.198594     9.198594    54.687419 
   10300    307.85289   -10505.473            0     -9588.74    9630.9551    779.22701    9.2021223    9.2021223    9.2021223     67.01132 
   10400    320.64213   -10543.355            0   -9588.5378    6548.9215    780.41995    9.2068158    9.2068158    9.2068158    41.515116 
   10500    301.24856    -10486.56            0   -9589.4934    19005.177    782.24422     9.213984     9.213984     9.213984    51.192702 
   10600    303.73997   -10495.438            0   -9590.9523    1359.9466    785.20083     9.225578     9.225578     9.225578    57.399392 
   10700    304.54728   -10498.594            0   -9591.7037   -17750.392    788.63692    9.2390156    9.2390156    9.2390156    43.423294 
   10800    303.24445   -10495.075            0    -9592.065    275.26899    791.78549    9.2512946    9.2512946    9.2512946    54.290925 
   10900    299.94809   -10485.755            0   -9592.5611   -9044.4171    794.42885    9.2615783    9.2615783    9.2615783    53.924564 
   11000    282.17247   -10431.467            0   -9591.2057   -1368.2746    796.41376    9.2692854    9.2692854    9.2692854    53.227598 
Loop time of 19.9027 on 16 procs for 1000 steps with 1000 atoms

Performance: 4.341 ns/day, 5.529 hours/ns, 50.244 timesteps/s
94.5% CPU use with 16 MPI tasks x no OpenMP threads

MPI task timing breakdown:
Section |  min time  |  avg time  |  max time  |%varavg| %total
---------------------------------------------------------------
Pair    | 1.6314     | 1.7663     | 2.1303     |   7.8 |  8.87
Neigh   | 0.58691    | 0.61587    | 0.7214     |   3.7 |  3.09
Comm    | 0.41266    | 0.88176    | 1.0452     |  14.0 |  4.43
Output  | 10.866     | 11.229     | 16.607     |  41.4 | 56.42
Modify  | 0.023018   | 5.4031     | 5.7659     |  59.8 | 27.15
Other   |            | 0.007066   |            |       |  0.04

Nlocal:    62.5 ave 69 max 55 min
Histogram: 2 0 0 2 2 2 4 3 0 1
Nghost:    1838.06 ave 1853 max 1823 min
Histogram: 2 2 1 1 0 3 3 1 0 3
Neighs:    0 ave 0 max 0 min
Histogram: 16 0 0 0 0 0 0 0 0 0
FullNghs:  18505.4 ave 20241 max 16190 min
Histogram: 2 0 0 1 3 2 3 2 2 1

Total # of neighbors = 296086
Ave neighs/atom = 296.086
Neighbor list builds = 1000
Dangerous builds not checked
Setting up Verlet run ...
  Unit style    : real
  Current step  : 11000
  Time step     : 1
Per MPI rank memory allocation (min/avg/max) = 4.576 | 4.578 | 4.579 Mbytes
Step Temp E_pair E_mol TotEng Press Volume Lx Ly Lz S/CPU 
   11000    282.17247   -10431.467            0   -9591.2057   -1368.2746    796.41376    9.2692854    9.2692854    9.2692854            0 
   11100    301.91275   -10490.282            0   -9591.2376   -5269.4383    797.63683    9.2740279    9.2740279    9.2740279    53.031926 
   11200    294.10709   -10464.207            0   -9588.4062   -14261.338    797.94286    9.2752139    9.2752139    9.2752139    61.703217 
   11300    304.09385   -10490.653            0   -9585.1139   -7048.1111    797.15707    9.2721682    9.2721682    9.2721682    66.598272 
   11400    294.17592   -10455.067            0   -9579.0611    -7186.268    795.68768    9.2664676    9.2664676    9.2664676    43.115161 
   11500    295.57278   -10455.463            0   -9575.2977   -3547.0523    793.42203    9.2576641    9.2576641    9.2576641    57.811158 
   11600    296.40106   -10452.309            0    -9569.677   -1259.5954    790.80134    9.2474601    9.2474601    9.2474601    50.037404 
   11700    315.99694   -10507.514            0    -9566.529    1843.0148    787.86861    9.2360143    9.2360143    9.2360143    66.802863 
   11800    306.99452    -10475.38            0   -9561.2025   -4288.7488    785.04058    9.2249503    9.2249503    9.2249503    66.182883 
   11900    314.64062   -10494.985            0   -9558.0387    8706.1359    782.65247    9.2155866    9.2155866    9.2155866    62.018103 
   12000    304.94916   -10463.137            0   -9555.0508    5526.2387    781.13436    9.2096243    9.2096243    9.2096243    42.800527 
Loop time of 18.0123 on 16 procs for 1000 steps with 1000 atoms

Performance: 4.797 ns/day, 5.003 hours/ns, 55.518 timesteps/s
94.7% CPU use with 16 MPI tasks x no OpenMP threads

MPI task timing breakdown:
Section |  min time  |  avg time  |  max time  |%varavg| %total
---------------------------------------------------------------
Pair    | 1.6502     | 1.7569     | 2.3269     |  13.3 |  9.75
Neigh   | 0.58945    | 0.62175    | 0.77992    |   6.4 |  3.45
Comm    | 0.34168    | 1.0688     | 1.2063     |  21.8 |  5.93
Output  | 9.294      | 9.6257     | 14.532     |  40.8 | 53.44
Modify  | 0.023006   | 4.9321     | 5.2649     |  57.1 | 27.38
Other   |            | 0.007072   |            |       |  0.04

Nlocal:    62.5 ave 68 max 57 min
Histogram: 1 2 1 0 4 2 3 1 1 1
Nghost:    1861.44 ave 1874 max 1854 min
Histogram: 3 3 2 1 2 0 2 0 1 2
Neighs:    0 ave 0 max 0 min
Histogram: 16 0 0 0 0 0 0 0 0 0
FullNghs:  18904.5 ave 20526 max 17162 min
Histogram: 1 2 1 0 4 2 3 0 2 1

Total # of neighbors = 302472
Ave neighs/atom = 302.472
Neighbor list builds = 1000
Dangerous builds not checked
Setting up Verlet run ...
  Unit style    : real
  Current step  : 12000
  Time step     : 1
Per MPI rank memory allocation (min/avg/max) = 4.576 | 4.578 | 4.579 Mbytes
Step Temp E_pair E_mol TotEng Press Volume Lx Ly Lz S/CPU 
   12000    304.94916   -10463.137            0   -9555.0508    5526.2387    781.13436    9.2096243    9.2096243    9.2096243            0 
   12100    312.41883   -10483.096            0   -9552.7659     7348.947    780.54994    9.2073269    9.2073269    9.2073269    65.705571 
   12200    301.18478   -10447.498            0   -9550.6208    21719.262    780.98623    9.2090421    9.2090421    9.2090421     60.61367 
   12300    306.69464   -10465.161            0   -9551.8764    14532.317    782.55985    9.2152231    9.2152231    9.2152231    63.457142 
   12400    306.32088   -10463.991            0     -9551.82   -2564.8152    784.91532    9.2244596    9.2244596    9.2244596    52.069383 
   12500    300.75078   -10449.445            0   -9553.8602   -3631.8186    787.27405    9.2336905    9.2336905    9.2336905    49.488607 
   12600    301.88785   -10453.982            0   -9555.0111    7867.1535    789.62981    9.2428913    9.2428913    9.2428913    59.078042 
   12700    302.95932   -10459.968            0   -9557.8069    3409.4906    792.20017    9.2529094    9.2529094    9.2529094    46.774143 
   12800    296.95363   -10443.178            0   -9558.9005   -20476.049    794.84038    9.2631773    9.2631773    9.2631773    67.639166 
   12900    299.68296   -10453.117            0   -9560.7125   -8912.7478    796.52328    9.2697102    9.2697102    9.2697102    41.746059 
   13000    308.95078   -10483.821            0   -9563.8183   -4798.5314    797.47123    9.2733861    9.2733861    9.2733861    40.041972 
Loop time of 18.8907 on 16 procs for 1000 steps with 1000 atoms

Performance: 4.574 ns/day, 5.247 hours/ns, 52.936 timesteps/s
94.7% CPU use with 16 MPI tasks x no OpenMP threads

MPI task timing breakdown:
Section |  min time  |  avg time  |  max time  |%varavg| %total
---------------------------------------------------------------
Pair    | 1.6687     | 1.794      | 2.4906     |  14.5 |  9.50
Neigh   | 0.58621    | 0.62633    | 0.8232     |   7.1 |  3.32
Comm    | 0.2856     | 1.1779     | 1.3375     |  23.0 |  6.24
Output  | 10.943     | 11.217     | 15.26      |  31.2 | 59.38
Modify  | 0.02305    | 4.0685     | 4.3425     |  51.8 | 21.54
Other   |            | 0.007116   |            |       |  0.04

Nlocal:    62.5 ave 71 max 56 min
Histogram: 3 0 2 1 4 1 3 0 1 1
Nghost:    1832.5 ave 1846 max 1819 min
Histogram: 2 1 2 3 1 0 1 2 2 2
Neighs:    0 ave 0 max 0 min
Histogram: 16 0 0 0 0 0 0 0 0 0
FullNghs:  18518.4 ave 21202 max 16534 min
Histogram: 3 0 2 2 3 1 3 1 0 1

Total # of neighbors = 296294
Ave neighs/atom = 296.294
Neighbor list builds = 1000
Dangerous builds not checked
Setting up Verlet run ...
  Unit style    : real
  Current step  : 13000
  Time step     : 1
Per MPI rank memory allocation (min/avg/max) = 4.576 | 4.578 | 4.579 Mbytes
Step Temp E_pair E_mol TotEng Press Volume Lx Ly Lz S/CPU 
   13000    308.95078   -10483.821            0   -9563.8183   -4798.5314    797.47123    9.2733861    9.2733861    9.2733861            0 
   13100    300.36072   -10461.469            0   -9567.0463   -21384.314    797.84319    9.2748276    9.2748276    9.2748276     60.02687 
   13200    310.72539   -10498.841            0    -9573.554   -4186.4071    797.12194     9.272032     9.272032     9.272032      64.0441 
   13300    299.55824   -10474.145            0   -9582.1116   -23138.218    795.83283     9.267031     9.267031     9.267031    52.218735 
   13400    307.42463   -10507.996            0   -9592.5382   -1387.3498    793.65074    9.2585535    9.2585535    9.2585535    60.957779 
   13500    308.57353    -10523.18            0   -9604.3009   -10889.686    790.64867    9.2468649    9.2468649    9.2468649    62.357008 
   13600    303.99734    -10519.62            0   -9614.3682   -1238.1454    787.15986     9.233244     9.233244     9.233244     44.78397 
   13700    297.45403   -10510.172            0   -9624.4048   -11807.213    783.71494    9.2197549    9.2197549    9.2197549    57.427081 
   13800    288.98897    -10491.51            0   -9630.9505    3337.7898    780.11511    9.2056169    9.2056169    9.2056169    57.827811 
   13900    287.12923   -10490.664            0   -9635.6418    12275.634    777.24425    9.1943107    9.1943107    9.1943107     49.37854 
   14000    296.50626   -10525.162            0   -9642.2166    20094.315    775.52945     9.187544     9.187544     9.187544    52.228577 
Loop time of 18.0299 on 16 procs for 1000 steps with 1000 atoms

Performance: 4.792 ns/day, 5.008 hours/ns, 55.463 timesteps/s
94.8% CPU use with 16 MPI tasks x no OpenMP threads

MPI task timing breakdown:
Section |  min time  |  avg time  |  max time  |%varavg| %total
---------------------------------------------------------------
Pair    | 1.6215     | 1.8006     | 2.5773     |  16.7 |  9.99
Neigh   | 0.59034    | 0.63164    | 0.86602    |   8.6 |  3.50
Comm    | 0.31055    | 1.3207     | 1.5447     |  25.4 |  7.33
Output  | 9.0846     | 9.4108     | 14.244     |  40.7 | 52.20
Modify  | 0.023893   | 4.859      | 5.1864     |  56.6 | 26.95
Other   |            | 0.007148   |            |       |  0.04

Nlocal:    62.5 ave 68 max 59 min
Histogram: 1 1 4 3 4 0 1 1 0 1
Nghost:    1881.44 ave 1901 max 1858 min
Histogram: 2 1 1 2 0 1 3 3 2 1
Neighs:    0 ave 0 max 0 min
Histogram: 16 0 0 0 0 0 0 0 0 0
FullNghs:  19031.6 ave 20917 max 17909 min
Histogram: 1 1 5 4 2 0 1 1 0 1

Total # of neighbors = 304506
Ave neighs/atom = 304.506
Neighbor list builds = 1000
Dangerous builds not checked
Setting up Verlet run ...
  Unit style    : real
  Current step  : 14000
  Time step     : 1
Per MPI rank memory allocation (min/avg/max) = 4.576 | 4.578 | 4.579 Mbytes
Step Temp E_pair E_mol TotEng Press Volume Lx Ly Lz S/CPU 
   14000    296.50626   -10525.162            0   -9642.2166    20094.315    775.52945     9.187544     9.187544     9.187544            0 
   14100    292.64215   -10516.471            0   -9645.0322    20921.615     775.1414    9.1860114    9.1860114    9.1860114    43.273857 
   14200    294.59975    -10526.14            0   -9648.8725    24682.053    775.74956    9.1884131    9.1884131    9.1884131    50.348183 
   14300    296.81433   -10535.891            0   -9652.0286    13318.361    777.05584    9.1935676    9.1935676    9.1935676    62.973813 
   14400      292.755   -10527.365            0   -9655.5907    4840.0656    778.93603    9.2009767    9.2009767    9.2009767    46.554799 
   14500    296.28374   -10539.032            0   -9656.7491   -12865.023    780.98512    9.2090378    9.2090378    9.2090378    61.498627 
   14600    308.28278   -10574.995            0   -9656.9817    -11758.26    782.48619     9.214934     9.214934     9.214934    62.082164 
   14700    279.88503   -10484.964            0   -9651.5141   -14201.923     783.1547    9.2175574    9.2175574    9.2175574    43.795303 
   14800    299.40518   -10538.418            0   -9646.8408   -28820.552    783.05753    9.2171762    9.2171762    9.2171762    44.964547 
   14900    302.45412   -10539.499            0   -9638.8425   -544.20261     782.1368    9.2135622    9.2135622    9.2135622     55.57258 
   15000    304.35432    -10533.45            0   -9627.1348    12008.408    781.35419    9.2104882    9.2104882    9.2104882    44.950774 
Loop time of 19.8013 on 16 procs for 1000 steps with 1000 atoms

Performance: 4.363 ns/day, 5.500 hours/ns, 50.502 timesteps/s
94.7% CPU use with 16 MPI tasks x no OpenMP threads

MPI task timing breakdown:
Section |  min time  |  avg time  |  max time  |%varavg| %total
---------------------------------------------------------------
Pair    | 1.674      | 1.83       | 2.5138     |  13.6 |  9.24
Neigh   | 0.59318    | 0.62929    | 0.83086    |   6.9 |  3.18
Comm    | 0.31274    | 1.1974     | 1.3897     |  21.7 |  6.05
Output  | 10.933     | 11.26      | 16.111     |  37.3 | 56.86
Modify  | 0.023811   | 4.8775     | 5.2059     |  56.7 | 24.63
Other   |            | 0.007149   |            |       |  0.04

Nlocal:    62.5 ave 66 max 58 min
Histogram: 2 1 1 3 0 1 1 1 3 3
Nghost:    1862.75 ave 1892 max 1845 min
Histogram: 2 5 1 2 2 0 1 0 2 1
Neighs:    0 ave 0 max 0 min
Histogram: 16 0 0 0 0 0 0 0 0 0
FullNghs:  18926.1 ave 20099 max 17418 min
Histogram: 2 1 1 2 1 2 0 1 3 3

Total # of neighbors = 302818
Ave neighs/atom = 302.818
Neighbor list builds = 1000
Dangerous builds not checked
Setting up Verlet run ...
  Unit style    : real
  Current step  : 15000
  Time step     : 1
Per MPI rank memory allocation (min/avg/max) = 4.576 | 4.578 | 4.579 Mbytes
Step Temp E_pair E_mol TotEng Press Volume Lx Ly Lz S/CPU 
   15000    304.35432    -10533.45            0   -9627.1348    12008.408    781.35419    9.2104882    9.2104882    9.2104882            0 
   15100    292.09115    -10481.62            0   -9611.8225   -11200.705    781.09206    9.2094581    9.2094581    9.2094581    58.079317 
   15200    304.22488   -10503.049            0    -9597.119    760.34925    780.36355     9.206594     9.206594     9.206594    57.985968 
   15300    305.25917   -10490.603            0   -9581.5938   -760.64039     779.7161    9.2040471    9.2040471    9.2040471    59.187574 
   15400     311.1809    -10498.47            0   -9571.8266   -980.95418     779.5663    9.2034577    9.2034577    9.2034577    47.130652 
   15500    303.86296    -10470.48            0   -9565.6285    7940.2394    780.11668    9.2056231    9.2056231    9.2056231    60.891815 
   15600    297.21149   -10447.898            0   -9562.8532   -6598.0893    781.23742    9.2100293    9.2100293    9.2100293     57.76651 
   15700    300.84987   -10457.604            0   -9561.7247    7451.7496    782.42562    9.2146962    9.2146962    9.2146962    62.861265 
   15800     308.4732   -10480.588            0   -9562.0073    6008.3505    784.09537    9.2212465    9.2212465    9.2212465    67.388941 
   15900    290.00295   -10425.424            0   -9561.8447   -981.81415    786.09333    9.2290721    9.2290721    9.2290721    62.203796 
   16000    308.15614   -10481.852            0   -9564.2153   -15306.542    787.84962    9.2359402    9.2359402    9.2359402    53.234956 
Loop time of 17.1918 on 16 procs for 1000 steps with 1000 atoms

Performance: 5.026 ns/day, 4.776 hours/ns, 58.167 timesteps/s
94.7% CPU use with 16 MPI tasks x no OpenMP threads

MPI task timing breakdown:
Section |  min time  |  avg time  |  max time  |%varavg| %total
---------------------------------------------------------------
Pair    | 1.7076     | 1.7938     | 2.2437     |   9.3 | 10.43
Neigh   | 0.59847    | 0.62158    | 0.75901    |   4.8 |  3.62
Comm    | 0.41539    | 1.0021     | 1.1085     |  16.2 |  5.83
Output  | 9.5006     | 9.7694     | 13.742     |  32.8 | 56.83
Modify  | 0.023255   | 3.9978     | 4.2671     |  51.3 | 23.25
Other   |            | 0.007167   |            |       |  0.04

Nlocal:    62.5 ave 67 max 55 min
Histogram: 1 1 0 0 1 5 2 1 2 3
Nghost:    1850 ave 1868 max 1832 min
Histogram: 2 3 1 1 0 1 3 1 2 2
Neighs:    0 ave 0 max 0 min
Histogram: 16 0 0 0 0 0 0 0 0 0
FullNghs:  18739.8 ave 20142 max 16470 min
Histogram: 1 1 0 1 0 5 2 1 3 2

Total # of neighbors = 299836
Ave neighs/atom = 299.836
Neighbor list builds = 1000
Dangerous builds not checked
Setting up Verlet run ...
  Unit style    : real
  Current step  : 16000
  Time step     : 1
Per MPI rank memory allocation (min/avg/max) = 4.576 | 4.578 | 4.579 Mbytes
Step Temp E_pair E_mol TotEng Press Volume Lx Ly Lz S/CPU 
   16000    308.15614   -10481.852            0   -9564.2153   -15306.542    787.84962    9.2359402    9.2359402    9.2359402            0 
   16100    312.30978   -10495.519            0   -9565.5137   -2110.0715    789.04205    9.2405974    9.2405974    9.2405974    59.531739 
   16200    287.27163   -10421.128            0   -9565.6817   -16914.495    789.85858    9.2437838    9.2437838    9.2437838    68.437069 
   16300    307.13136   -10482.371            0   -9567.7865    5977.3835    790.17558    9.2450203    9.2450203    9.2450203    53.421109 
   16400     300.1098   -10462.947            0   -9569.2716    -16449.19    790.31962     9.245582     9.245582     9.245582    55.945119 
   16500    298.65104   -10460.075            0   -9570.7428    -17938.93    790.04219       9.2445       9.2445       9.2445    58.992659 
   16600    302.42324   -10475.129            0   -9574.5642   -6996.7313    788.93142    9.2401655    9.2401655    9.2401655     57.70388 
   16700    307.80207   -10493.512            0   -9576.9295    4383.2354    787.61068    9.2350064    9.2350064    9.2350064    50.707942 
   16800    303.94652   -10486.086            0   -9580.9847    1751.2355    786.55335     9.230872     9.230872     9.230872    50.775069 
   16900    294.96134   -10463.296            0   -9584.9519   -14823.353    785.58674    9.2270891    9.2270891    9.2270891    54.293064 
   17000    299.72918   -10485.911            0    -9593.369   -7662.1005      784.336    9.2221897    9.2221897    9.2221897    42.768197 
Loop time of 18.3501 on 16 procs for 1000 steps with 1000 atoms

Performance: 4.708 ns/day, 5.097 hours/ns, 54.496 timesteps/s
94.7% CPU use with 16 MPI tasks x no OpenMP threads

MPI task timing breakdown:
Section |  min time  |  avg time  |  max time  |%varavg| %total
---------------------------------------------------------------
Pair    | 1.6458     | 1.7981     | 2.4504     |  14.3 |  9.80
Neigh   | 0.59389    | 0.62921    | 0.81513    |   6.9 |  3.43
Comm    | 0.35596    | 1.1933     | 1.3836     |  22.6 |  6.50
Output  | 10.272     | 10.552     | 14.697     |  32.9 | 57.50
Modify  | 0.02354    | 4.1705     | 4.4513     |  52.4 | 22.73
Other   |            | 0.007152   |            |       |  0.04

Nlocal:    62.5 ave 69 max 56 min
Histogram: 1 0 1 6 1 0 3 1 2 1
Nghost:    1850.25 ave 1867 max 1823 min
Histogram: 1 1 1 0 2 2 1 3 2 3
Neighs:    0 ave 0 max 0 min
Histogram: 16 0 0 0 0 0 0 0 0 0
FullNghs:  18820.4 ave 20992 max 16787 min
Histogram: 1 0 3 3 2 3 0 1 2 1

Total # of neighbors = 301126
Ave neighs/atom = 301.126
Neighbor list builds = 1000
Dangerous builds not checked
Setting up Verlet run ...
  Unit style    : real
  Current step  : 17000
  Time step     : 1
Per MPI rank memory allocation (min/avg/max) = 4.576 | 4.578 | 4.579 Mbytes
Step Temp E_pair E_mol TotEng Press Volume Lx Ly Lz S/CPU 
   17000    299.72918   -10485.911            0    -9593.369   -7662.1005      784.336    9.2221897    9.2221897    9.2221897            0 
   17100    295.06833   -10479.995            0   -9601.3318   -10727.025    782.91566    9.2166195    9.2166195    9.2166195    54.518519 
   17200    296.06616   -10493.188            0   -9611.5537   -9565.7365    781.07491    9.2093907    9.2093907    9.2093907    67.332661 
   17300    303.50368   -10526.672            0   -9622.8898    20992.632    779.12273    9.2017117    9.2017117    9.2017117    50.439452 
   17400    297.20637   -10519.415            0   -9634.3857     18963.05    778.11307    9.1977352    9.1977352    9.1977352    54.956955 
   17500    290.23204   -10510.097            0   -9645.8352    16106.164    778.00957    9.1973274    9.1973274    9.1973274    58.848507 
   17600    304.51803   -10563.374            0   -9656.5713    2783.9492    778.55673     9.199483     9.199483     9.199483    57.100837 
   17700    289.83099   -10526.768            0   -9663.7013    9180.7839    779.23831    9.2021667    9.2021667    9.2021667    47.696607 
   17800    293.90752   -10543.928            0   -9668.7212    3152.0177    779.98115    9.2050899    9.2050899    9.2050899    59.853875 
   17900    292.63181   -10542.826            0   -9671.4184    13575.033    780.70732    9.2079457    9.2079457    9.2079457    59.998053 
   18000     299.9386   -10564.875            0   -9671.7088     2248.999    781.51345    9.2111139    9.2111139    9.2111139    55.807916 
Loop time of 17.7981 on 16 procs for 1000 steps with 1000 atoms

Performance: 4.854 ns/day, 4.944 hours/ns, 56.186 timesteps/s
94.8% CPU use with 16 MPI tasks x no OpenMP threads

MPI task timing breakdown:
Section |  min time  |  avg time  |  max time  |%varavg| %total
---------------------------------------------------------------
Pair    | 1.6724     | 1.8378     | 2.4974     |  15.6 | 10.33
Neigh   | 0.5902     | 0.63151    | 0.81018    |   7.1 |  3.55
Comm    | 0.3524     | 1.1899     | 1.3881     |  24.5 |  6.69
Output  | 9.683      | 9.9629     | 14.106     |  33.9 | 55.98
Modify  | 0.023379   | 4.1688     | 4.4499     |  52.4 | 23.42
Other   |            | 0.007213   |            |       |  0.04

Nlocal:    62.5 ave 69 max 58 min
Histogram: 3 2 2 1 1 2 3 1 0 1
Nghost:    1853.06 ave 1873 max 1832 min
Histogram: 1 2 1 2 2 2 1 1 2 2
Neighs:    0 ave 0 max 0 min
Histogram: 16 0 0 0 0 0 0 0 0 0
FullNghs:  18893.6 ave 20879 max 17499 min
Histogram: 3 1 3 0 2 1 4 1 0 1

Total # of neighbors = 302298
Ave neighs/atom = 302.298
Neighbor list builds = 1000
Dangerous builds not checked
Setting up Verlet run ...
  Unit style    : real
  Current step  : 18000
  Time step     : 1
Per MPI rank memory allocation (min/avg/max) = 4.576 | 4.578 | 4.579 Mbytes
Step Temp E_pair E_mol TotEng Press Volume Lx Ly Lz S/CPU 
   18000     299.9386   -10564.875            0   -9671.7088     2248.999    781.51345    9.2111139    9.2111139    9.2111139            0 
   18100    280.70766   -10505.949            0   -9670.0495    4294.8895     782.5529    9.2151958    9.2151958    9.2151958    56.931025 
   18200    300.62696   -10563.364            0   -9668.1482   -12473.215    783.56723    9.2191756    9.2191756    9.2191756    55.455997 
   18300    298.94712    -10553.81            0   -9663.5968   -2226.5057    784.19529    9.2216382    9.2216382    9.2216382    47.444428 
   18400     294.5079    -10533.81            0   -9656.8161   -17201.852    784.67367    9.2235129    9.2235129    9.2235129    53.915035 
   18500    301.86558   -10549.549            0   -9650.6449   -3809.7487    784.43566    9.2225803    9.2225803    9.2225803    55.786717 
   18600    295.50562   -10525.336            0   -9645.3705    1115.6352    783.40182    9.2185269    9.2185269    9.2185269    66.643505 
   18700    302.03081   -10539.789            0   -9640.3933    80.311146    782.08289    9.2133505    9.2133505    9.2133505    49.946968 
   18800    300.39522   -10531.638            0   -9637.1127   -2372.2096    781.03093    9.2092178    9.2092178    9.2092178    66.078727 
   18900    293.68037   -10507.026            0   -9632.4963    3069.1747    780.06769    9.2054304    9.2054304    9.2054304    51.670047 
   19000    294.17937   -10504.774            0   -9628.7577    9685.5274    779.26838    9.2022851    9.2022851    9.2022851    40.945989 
Loop time of 18.7084 on 16 procs for 1000 steps with 1000 atoms

Performance: 4.618 ns/day, 5.197 hours/ns, 53.452 timesteps/s
94.6% CPU use with 16 MPI tasks x no OpenMP threads

MPI task timing breakdown:
Section |  min time  |  avg time  |  max time  |%varavg| %total
---------------------------------------------------------------
Pair    | 1.6915     | 1.7858     | 2.1828     |   8.5 |  9.55
Neigh   | 0.59641    | 0.62073    | 0.74094    |   4.4 |  3.32
Comm    | 0.41502    | 0.93162    | 1.053      |  15.3 |  4.98
Output  | 9.9999     | 10.337     | 15.338     |  40.2 | 55.25
Modify  | 0.022882   | 5.026      | 5.364      |  57.6 | 26.87
Other   |            | 0.00712    |            |       |  0.04

Nlocal:    62.5 ave 70 max 57 min
Histogram: 1 1 2 6 1 1 3 0 0 1
Nghost:    1871.94 ave 1887 max 1850 min
Histogram: 1 2 1 0 1 3 1 2 1 4
Neighs:    0 ave 0 max 0 min
Histogram: 16 0 0 0 0 0 0 0 0 0
FullNghs:  18965.2 ave 21304 max 17295 min
Histogram: 1 1 3 4 2 1 2 1 0 1

Total # of neighbors = 303444
Ave neighs/atom = 303.444
Neighbor list builds = 1000
Dangerous builds not checked
Setting up Verlet run ...
  Unit style    : real
  Current step  : 19000
  Time step     : 1
Per MPI rank memory allocation (min/avg/max) = 4.576 | 4.578 | 4.579 Mbytes
Step Temp E_pair E_mol TotEng Press Volume Lx Ly Lz S/CPU 
   19000    294.17937   -10504.774            0   -9628.7577    9685.5274    779.26838    9.2022851    9.2022851    9.2022851            0 
   19100    295.81719   -10505.697            0   -9624.8041    8799.3645    778.73431    9.2001824    9.2001824    9.2001824    48.997064 
   19200    309.06499   -10541.505            0   -9621.1627   -10519.687    778.72112    9.2001304    9.2001304    9.2001304    45.524552 
   19300    292.10299   -10486.214            0    -9616.381    11848.405    778.64099    9.1998149    9.1998149    9.1998149    60.355404 
   19400    310.23874   -10537.468            0   -9613.6302    23499.571     779.1655    9.2018801    9.2018801    9.2018801    75.069515 
   19500    289.99117   -10473.829            0   -9610.2845   -9786.9596    780.52108    9.2072135    9.2072135    9.2072135    59.882376 
   19600    295.12619   -10486.343            0   -9607.5074   -5735.0665    782.07416    9.2133162    9.2133162    9.2133162    48.256396 
   19700    303.16219   -10506.957            0   -9604.1919   -1032.3509    783.40586    9.2185427    9.2185427    9.2185427    45.297348 
   19800    293.59808   -10475.709            0   -9601.4242   -13714.913    784.68568      9.22356      9.22356      9.22356    47.077346 
   19900    294.06586   -10473.105            0   -9597.4267     601.1157    785.73781    9.2276805    9.2276805    9.2276805    56.774647 
   20000    300.80099   -10491.253            0   -9595.5187   -9981.6089    786.46175    9.2305137    9.2305137    9.2305137     57.01738 
Loop time of 18.8158 on 16 procs for 1000 steps with 1000 atoms

Performance: 4.592 ns/day, 5.227 hours/ns, 53.147 timesteps/s
94.6% CPU use with 16 MPI tasks x no OpenMP threads

MPI task timing breakdown:
Section |  min time  |  avg time  |  max time  |%varavg| %total
---------------------------------------------------------------
Pair    | 1.6927     | 1.7949     | 2.2936     |  10.3 |  9.54
Neigh   | 0.59412    | 0.62103    | 0.76064    |   4.8 |  3.30
Comm    | 0.35159    | 0.98861    | 1.1204     |  17.6 |  5.25
Output  | 9.6515     | 10.013     | 15.378     |  43.8 | 53.22
Modify  | 0.023177   | 5.3908     | 5.7535     |  59.7 | 28.65
Other   |            | 0.007181   |            |       |  0.04

Nlocal:    62.5 ave 66 max 57 min
Histogram: 1 0 1 1 2 2 2 4 2 1
Nghost:    1867.44 ave 1892 max 1843 min
Histogram: 2 0 3 1 2 3 2 0 2 1
Neighs:    0 ave 0 max 0 min
Histogram: 16 0 0 0 0 0 0 0 0 0
FullNghs:  18761.9 ave 19907 max 17012 min
Histogram: 1 1 0 2 1 2 2 4 0 3

Total # of neighbors = 300190
Ave neighs/atom = 300.19
Neighbor list builds = 1000
Dangerous builds not checked
Setting up Verlet run ...
  Unit style    : real
  Current step  : 20000
  Time step     : 1
Per MPI rank memory allocation (min/avg/max) = 4.576 | 4.578 | 4.579 Mbytes
Step Temp E_pair E_mol TotEng Press Volume Lx Ly Lz S/CPU 
   20000    300.80099   -10491.253            0   -9595.5187   -9981.6089    786.46175    9.2305137    9.2305137    9.2305137            0 
   20100    291.37149   -10460.189            0   -9592.5342    121.14514    787.00915    9.2326547    9.2326547    9.2326547    66.663577 
   20200    295.31709   -10469.156            0   -9589.7521   -25115.058    787.36979    9.2340648    9.2340648    9.2340648    57.097916 
   20300    296.17551   -10469.107            0   -9587.1464    -1026.334    786.79244    9.2318072    9.2318072    9.2318072    61.967428 
   20400    290.09374   -10447.881            0   -9584.0314    2441.0086    785.40722    9.2263862    9.2263862    9.2263862     64.22778 
   20500     305.9981    -10491.59            0   -9580.3798    -10721.95    783.58104    9.2192298    9.2192298    9.2192298    48.518797 
   20600    298.04747   -10463.687            0   -9576.1524    2036.7579    780.94323    9.2088731    9.2088731    9.2088731    44.975796 
   20700    314.23845   -10508.424            0   -9572.6757   -513.51185    777.91796    9.1969664    9.1969664    9.1969664    73.896952 
   20800    303.17804   -10468.638            0   -9565.8253    12710.838    775.30465    9.1866562    9.1866562    9.1866562    48.731483 
   20900    309.46502   -10481.311            0   -9559.7767    23869.587     773.5822     9.179848     9.179848     9.179848    58.518668 
   21000    309.45573   -10470.534            0   -9549.0277    27769.795     773.3167    9.1787976    9.1787976    9.1787976    50.261677 
Loop time of 17.8104 on 16 procs for 1000 steps with 1000 atoms

Performance: 4.851 ns/day, 4.947 hours/ns, 56.147 timesteps/s
94.6% CPU use with 16 MPI tasks x no OpenMP threads

MPI task timing breakdown:
Section |  min time  |  avg time  |  max time  |%varavg| %total
---------------------------------------------------------------
Pair    | 1.6416     | 1.7836     | 2.1983     |   8.9 | 10.01
Neigh   | 0.58401    | 0.61698    | 0.73339    |   4.1 |  3.46
Comm    | 0.39602    | 0.92674    | 1.1009     |  15.7 |  5.20
Output  | 9.6999     | 10         | 14.451     |  36.3 | 56.15
Modify  | 0.023161   | 4.4755     | 4.7766     |  54.3 | 25.13
Other   |            | 0.007076   |            |       |  0.04

Nlocal:    62.5 ave 69 max 57 min
Histogram: 3 1 2 0 0 6 1 0 2 1
Nghost:    1875.5 ave 1893 max 1852 min
Histogram: 1 0 1 2 2 3 2 1 2 2
Neighs:    0 ave 0 max 0 min
Histogram: 16 0 0 0 0 0 0 0 0 0
FullNghs:  19104.4 ave 20988 max 17347 min
Histogram: 3 1 2 0 0 4 3 0 1 2

Total # of neighbors = 305670
Ave neighs/atom = 305.67
Neighbor list builds = 1000
Dangerous builds not checked
Setting up Verlet run ...
  Unit style    : real
  Current step  : 21000
  Time step     : 1
Per MPI rank memory allocation (min/avg/max) = 4.576 | 4.578 | 4.579 Mbytes
Step Temp E_pair E_mol TotEng Press Volume Lx Ly Lz S/CPU 
   21000    309.45573   -10470.534            0   -9549.0277    27769.795     773.3167    9.1787976    9.1787976    9.1787976            0 
   21100    304.01606   -10444.368            0   -9539.0601    19987.957     774.5905    9.1838346    9.1838346    9.1838346    49.367484 
   21200    322.56115   -10490.947            0   -9530.4152    24257.486    777.14801    9.1939311    9.1939311    9.1939311    63.165579 
   21300    321.14183   -10478.194            0    -9521.888     10330.76    781.03657      9.20924      9.20924      9.20924    62.203509 
   21400    305.80445   -10425.255            0   -9514.6215    7330.1463    785.87317    9.2282104    9.2282104    9.2282104    53.975731 
   21500    307.58124   -10425.634            0   -9509.7095   -11176.299    791.25126    9.2492135    9.2492135    9.2492135    49.403811 
   21600    305.45864   -10415.007            0   -9505.4037   -5845.2294    796.21326    9.2685074    9.2685074    9.2685074    65.643157 
   21700    305.49773   -10413.696            0   -9503.9762   -17498.289    800.42455    9.2848195    9.2848195    9.2848195     60.09483 
   21800    300.99376   -10399.174            0   -9502.8662    -10898.63    803.42857    9.2964204    9.2964204    9.2964204    56.880794 
   21900    309.06823   -10425.444            0   -9505.0917   -17433.361    805.47657    9.3043128    9.3043128    9.3043128    52.622277 
   22000    324.24282   -10473.662            0   -9508.1222   -10601.381    806.33156    9.3076038    9.3076038    9.3076038      55.2702 
Loop time of 17.7484 on 16 procs for 1000 steps with 1000 atoms

Performance: 4.868 ns/day, 4.930 hours/ns, 56.343 timesteps/s
94.6% CPU use with 16 MPI tasks x no OpenMP threads

MPI task timing breakdown:
Section |  min time  |  avg time  |  max time  |%varavg| %total
---------------------------------------------------------------
Pair    | 1.645      | 1.7451     | 2.1614     |   8.6 |  9.83
Neigh   | 0.59336    | 0.61568    | 0.73796    |   4.2 |  3.47
Comm    | 0.36813    | 0.90644    | 1.0312     |  15.4 |  5.11
Output  | 9.4319     | 9.7492     | 14.449     |  38.9 | 54.93
Modify  | 0.023189   | 4.7248     | 5.0427     |  55.8 | 26.62
Other   |            | 0.00705    |            |       |  0.04

Nlocal:    62.5 ave 67 max 57 min
Histogram: 1 0 2 2 1 2 0 4 2 2
Nghost:    1820.5 ave 1842 max 1798 min
Histogram: 1 1 1 4 1 3 1 1 0 3
Neighs:    0 ave 0 max 0 min
Histogram: 16 0 0 0 0 0 0 0 0 0
FullNghs:  18307.8 ave 19740 max 16542 min
Histogram: 1 1 1 3 1 1 3 2 1 2

Total # of neighbors = 292924
Ave neighs/atom = 292.924
Neighbor list builds = 1000
Dangerous builds not checked
Setting up Verlet run ...
  Unit style    : real
  Current step  : 22000
  Time step     : 1
Per MPI rank memory allocation (min/avg/max) = 4.576 | 4.578 | 4.579 Mbytes
Step Temp E_pair E_mol TotEng Press Volume Lx Ly Lz S/CPU 
   22000    324.24282   -10473.662            0   -9508.1222   -10601.381    806.33156    9.3076038    9.3076038    9.3076038            0 
   22100    310.24612   -10436.829            0   -9512.9695   -23437.859    805.89015     9.305905     9.305905     9.305905    62.877061 
   22200    306.82907   -10434.604            0   -9520.9192   -21991.583    803.93424    9.2983704    9.2983704    9.2983704    47.809726 
   22300    298.15042   -10420.495            0   -9532.6544   -14315.712    800.52606     9.285212     9.285212     9.285212    50.722479 
   22400    302.86435   -10448.551            0   -9546.6723   -14325.349    796.50416    9.2696361    9.2696361    9.2696361    54.288817 
   22500    306.24593    -10474.16            0    -9562.212   -19.407219    792.25834    9.2531359    9.2531359    9.2531359     49.87673 
   22600    298.01301   -10461.331            0   -9573.8987    3954.1423    788.29604    9.2376843    9.2376843    9.2376843    62.223637 
   22700     283.1213   -10425.037            0   -9581.9501    7263.2138    784.81407     9.224063     9.224063     9.224063    57.254395 
   22800    302.95245   -10492.572            0   -9590.4312   -164.21594    781.83649    9.2123829    9.2123829    9.2123829    42.487233 
   22900    308.23496   -10515.198            0   -9597.3272    18961.332    779.30225    9.2024184    9.2024184    9.2024184    58.268319 
   23000     306.7496   -10517.294            0   -9603.8462    6814.7766    777.68282    9.1960397    9.1960397    9.1960397    58.165338 
Loop time of 18.6433 on 16 procs for 1000 steps with 1000 atoms

Performance: 4.634 ns/day, 5.179 hours/ns, 53.639 timesteps/s
94.6% CPU use with 16 MPI tasks x no OpenMP threads

MPI task timing breakdown:
Section |  min time  |  avg time  |  max time  |%varavg| %total
---------------------------------------------------------------
Pair    | 1.639      | 1.7407     | 2.1944     |  10.0 |  9.34
Neigh   | 0.58862    | 0.61707    | 0.76699    |   5.3 |  3.31
Comm    | 0.37952    | 0.98209    | 1.1118     |  17.4 |  5.27
Output  | 9.8169     | 10.161     | 15.271     |  41.4 | 54.50
Modify  | 0.023225   | 5.135      | 5.4803     |  58.2 | 27.54
Other   |            | 0.007047   |            |       |  0.04

Nlocal:    62.5 ave 71 max 55 min
Histogram: 1 1 1 3 3 3 2 0 1 1
Nghost:    1868.06 ave 1884 max 1852 min
Histogram: 2 1 0 1 2 6 0 3 0 1
Neighs:    0 ave 0 max 0 min
Histogram: 16 0 0 0 0 0 0 0 0 0
FullNghs:  18986.6 ave 21794 max 16718 min
Histogram: 2 0 2 4 1 3 2 1 0 1

Total # of neighbors = 303786
Ave neighs/atom = 303.786
Neighbor list builds = 1000
Dangerous builds not checked
Setting up Verlet run ...
  Unit style    : real
  Current step  : 23000
  Time step     : 1
Per MPI rank memory allocation (min/avg/max) = 4.576 | 4.578 | 4.579 Mbytes
Step Temp E_pair E_mol TotEng Press Volume Lx Ly Lz S/CPU 
   23000     306.7496   -10517.294            0   -9603.8462    6814.7766    777.68282    9.1960397    9.1960397    9.1960397            0 
   23100    305.22381   -10517.135            0   -9608.2301    17654.224    777.01215    9.1933953    9.1933953    9.1933953    47.353617 
   23200    301.30489   -10510.904            0    -9613.669     4307.331    777.50899    9.1953544    9.1953544    9.1953544    50.297359 
   23300     304.9042   -10525.538            0   -9617.5858   -1559.1456    778.85607    9.2006618    9.2006618    9.2006618    64.088298 
   23400    303.38665   -10524.786            0    -9621.352     11046.82    780.57759    9.2074357    9.2074357    9.2074357    49.260819 
   23500    288.97723   -10484.945            0   -9624.4201     6661.125    782.59449    9.2153591    9.2153591    9.2153591    61.232041 
   23600    289.56636   -10489.336            0   -9627.0563   -8291.9438    784.40768    9.2224706    9.2224706    9.2224706    60.833603 
   23700    295.40296   -10508.689            0    -9629.029    4268.2843    785.89921    9.2283123    9.2283123    9.2283123    52.639155 
   23800    303.25772   -10533.472            0   -9630.4226    -14965.34    786.92869    9.2323401    9.2323401    9.2323401    40.176878 
   23900    288.20228   -10488.604            0   -9630.3866   -7708.3646    787.28734    9.2337424    9.2337424    9.2337424    57.121174 
   24000    295.11918    -10509.77            0   -9630.9553   -2662.4473    787.03759    9.2327659    9.2327659    9.2327659     64.81862 
Loop time of 18.6494 on 16 procs for 1000 steps with 1000 atoms

Performance: 4.633 ns/day, 5.180 hours/ns, 53.621 timesteps/s
94.7% CPU use with 16 MPI tasks x no OpenMP threads

MPI task timing breakdown:
Section |  min time  |  avg time  |  max time  |%varavg| %total
---------------------------------------------------------------
Pair    | 1.666      | 1.8028     | 2.3797     |  12.1 |  9.67
Neigh   | 0.5863     | 0.62614    | 0.80736    |   6.5 |  3.36
Comm    | 0.35302    | 1.1111     | 1.2873     |  20.2 |  5.96
Output  | 10.253     | 10.558     | 15.077     |  35.9 | 56.61
Modify  | 0.023873   | 4.5445     | 4.8507     |  54.8 | 24.37
Other   |            | 0.007158   |            |       |  0.04

Nlocal:    62.5 ave 69 max 58 min
Histogram: 2 1 2 4 2 3 0 1 0 1
Nghost:    1842.5 ave 1860 max 1820 min
Histogram: 1 1 1 2 2 1 2 2 1 3
Neighs:    0 ave 0 max 0 min
Histogram: 16 0 0 0 0 0 0 0 0 0
FullNghs:  18740.2 ave 20887 max 17333 min
Histogram: 2 0 3 3 3 3 0 1 0 1

Total # of neighbors = 299844
Ave neighs/atom = 299.844
Neighbor list builds = 1000
Dangerous builds not checked
Setting up Verlet run ...
  Unit style    : real
  Current step  : 24000
  Time step     : 1
Per MPI rank memory allocation (min/avg/max) = 4.576 | 4.578 | 4.579 Mbytes
Step Temp E_pair E_mol TotEng Press Volume Lx Ly Lz S/CPU 
   24000    295.11918    -10509.77            0   -9630.9553   -2662.4473    787.03759    9.2327659    9.2327659    9.2327659            0 
   24100    297.34427   -10517.312            0   -9631.8713   -6388.1788    786.11262    9.2291475    9.2291475    9.2291475    54.054241 
   24200    293.52326   -10503.355            0   -9629.2928    2594.9469    784.74446    9.2237903    9.2237903    9.2237903    59.374537 
   24300      301.878   -10524.033            0   -9625.0922    5370.0171    783.34657    9.2183101    9.2183101    9.2183101    49.922778 
   24400      303.025    -10520.45            0   -9618.0934    1486.8951    782.14605    9.2135986    9.2135986    9.2135986    61.789122 
   24500    296.70245   -10490.721            0   -9607.1914    512.16943    781.08303    9.2094226    9.2094226    9.2094226    38.859128 
   24600    297.37616   -10480.686            0   -9595.1504   -2088.1628    780.30255    9.2063541    9.2063541    9.2063541    57.438537 
   24700     298.5186   -10468.924            0   -9579.9868    9487.9942    779.77077    9.2042622    9.2042622    9.2042622    50.994614 
   24800    305.49021   -10476.999            0   -9567.3011   -1115.7167    779.63115    9.2037128    9.2037128    9.2037128    61.517089 
   24900     294.8837   -10433.851            0   -9555.7376    5692.4185    779.72515    9.2040827    9.2040827    9.2040827    62.479369 
   25000    308.78213   -10468.177            0   -9548.6764   -12798.616    780.03558     9.205304     9.205304     9.205304    53.295614 
Loop time of 18.5335 on 16 procs for 1000 steps with 1000 atoms

Performance: 4.662 ns/day, 5.148 hours/ns, 53.956 timesteps/s
94.7% CPU use with 16 MPI tasks x no OpenMP threads

MPI task timing breakdown:
Section |  min time  |  avg time  |  max time  |%varavg| %total
---------------------------------------------------------------
Pair    | 1.7139     | 1.8049     | 2.3582     |  11.0 |  9.74
Neigh   | 0.59679    | 0.625      | 0.79799    |   5.9 |  3.37
Comm    | 0.36454    | 1.09       | 1.2091     |  18.6 |  5.88
Output  | 10.033     | 10.346     | 14.981     |  37.2 | 55.82
Modify  | 0.023308   | 4.6606     | 4.9744     |  55.5 | 25.15
Other   |            | 0.007163   |            |       |  0.04

Nlocal:    62.5 ave 68 max 58 min
Histogram: 2 2 1 2 1 1 3 0 2 2
Nghost:    1871.56 ave 1886 max 1859 min
Histogram: 2 2 2 3 0 1 1 1 3 1
Neighs:    0 ave 0 max 0 min
Histogram: 16 0 0 0 0 0 0 0 0 0
FullNghs:  18898.8 ave 20552 max 17522 min
Histogram: 3 1 2 2 0 3 1 1 1 2

Total # of neighbors = 302380
Ave neighs/atom = 302.38
Neighbor list builds = 1000
Dangerous builds not checked
Setting up Verlet run ...
  Unit style    : real
  Current step  : 25000
  Time step     : 1
Per MPI rank memory allocation (min/avg/max) = 4.576 | 4.578 | 4.579 Mbytes
Step Temp E_pair E_mol TotEng Press Volume Lx Ly Lz S/CPU 
   25000    308.78213   -10468.177            0   -9548.6764   -12798.616    780.03558     9.205304     9.205304     9.205304            0 
   25100    319.61783    -10496.85            0   -9545.0826   -12743.404    780.13921    9.2057117    9.2057117    9.2057117    56.864735 
   25200    311.82015   -10471.405            0   -9542.8576     8266.669    780.20073    9.2059537    9.2059537    9.2059537    59.606665 
   25300    311.88567   -10473.662            0   -9544.9199    4219.0624    780.80078    9.2083131    9.2083131    9.2083131    61.496821 
   25400    301.32002   -10446.708            0    -9549.428    3977.0557     781.8831    9.2125659    9.2125659    9.2125659    50.803656 
   25500    307.17273   -10469.121            0   -9554.4133    -8883.419    783.61771    9.2193736    9.2193736    9.2193736    67.261456 
   25600     302.7199   -10460.599            0   -9559.1513   -16374.479    785.03774    9.2249392    9.2249392    9.2249392    52.089432 
   25700    303.54869   -10470.181            0   -9566.2645   -12110.288    785.97738    9.2286183    9.2286183    9.2286183    49.609899 
   25800    311.61647   -10501.399            0   -9573.4583   -8400.6046    786.31703    9.2299474    9.2299474    9.2299474    58.440059 
   25900    314.14879    -10516.78            0   -9581.2983   -17048.351     786.1196    9.2291749    9.2291749    9.2291749    54.250759 
   26000    299.48932   -10479.987            0   -9588.1589   -16890.304    785.15785    9.2254096    9.2254096    9.2254096     40.58012 
Loop time of 18.4717 on 16 procs for 1000 steps with 1000 atoms

Performance: 4.677 ns/day, 5.131 hours/ns, 54.137 timesteps/s
94.8% CPU use with 16 MPI tasks x no OpenMP threads

MPI task timing breakdown:
Section |  min time  |  avg time  |  max time  |%varavg| %total
---------------------------------------------------------------
Pair    | 1.6638     | 1.8458     | 2.6084     |  16.4 |  9.99
Neigh   | 0.59398    | 0.63738    | 0.85377    |   8.0 |  3.45
Comm    | 0.40361    | 1.3824     | 1.6074     |  24.4 |  7.48
Output  | 10.165     | 10.444     | 14.572     |  33.0 | 56.54
Modify  | 0.024668   | 4.1547     | 4.4345     |  52.3 | 22.49
Other   |            | 0.007225   |            |       |  0.04

Nlocal:    62.5 ave 70 max 55 min
Histogram: 1 1 1 2 4 1 3 0 2 1
Nghost:    1852.19 ave 1871 max 1828 min
Histogram: 1 0 1 2 2 2 3 3 0 2
Neighs:    0 ave 0 max 0 min
Histogram: 16 0 0 0 0 0 0 0 0 0
FullNghs:  18792.5 ave 21174 max 16331 min
Histogram: 1 2 0 2 5 0 2 1 2 1

Total # of neighbors = 300680
Ave neighs/atom = 300.68
Neighbor list builds = 1000
Dangerous builds not checked
Setting up Verlet run ...
  Unit style    : real
  Current step  : 26000
  Time step     : 1
Per MPI rank memory allocation (min/avg/max) = 4.576 | 4.578 | 4.579 Mbytes
Step Temp E_pair E_mol TotEng Press Volume Lx Ly Lz S/CPU 
   26000    299.48932   -10479.987            0   -9588.1589   -16890.304    785.15785    9.2254096    9.2254096    9.2254096            0 
   26100    312.76678   -10528.568            0   -9597.2019   -13490.909    783.18111     9.217661     9.217661     9.217661     64.17474 
   26200    301.00445   -10500.229            0   -9603.8894     2757.076     780.5945    9.2075021    9.2075021    9.2075021    48.803587 
   26300    298.12762   -10497.833            0   -9610.0596    22137.994    778.01545    9.1973506    9.1973506    9.1973506    57.406208 
   26400    300.20031   -10507.762            0   -9613.8163    8039.3872    776.09459    9.1897752    9.1897752    9.1897752    54.670462 
   26500     298.3285   -10504.781            0   -9616.4094    17748.444    774.66351    9.1841232    9.1841232    9.1841232    60.453577 
   26600    304.49639   -10525.467            0   -9618.7283    7278.3271    773.93772     9.181254     9.181254     9.181254    42.007048 
   26700    298.14698   -10507.138            0   -9619.3068    5466.0645    774.04001    9.1816585    9.1816585    9.1816585    55.865711 
   26800    305.28431   -10529.893            0   -9620.8082    20801.901    774.98012    9.1853742    9.1853742    9.1853742    67.891294 
   26900    294.96218   -10500.166            0   -9621.8195    16942.153    777.10661    9.1937679    9.1937679    9.1937679    57.492213 
   27000    305.48115   -10531.598            0    -9621.927   -1071.4477    780.17589    9.2058559    9.2058559    9.2058559    47.556004 
Loop time of 18.3182 on 16 procs for 1000 steps with 1000 atoms

Performance: 4.717 ns/day, 5.088 hours/ns, 54.590 timesteps/s
94.7% CPU use with 16 MPI tasks x no OpenMP threads

MPI task timing breakdown:
Section |  min time  |  avg time  |  max time  |%varavg| %total
---------------------------------------------------------------
Pair    | 1.7115     | 1.8407     | 2.4013     |  11.3 | 10.05
Neigh   | 0.60323    | 0.63113    | 0.79884    |   5.8 |  3.45
Comm    | 0.39771    | 1.1261     | 1.2827     |  18.8 |  6.15
Output  | 10.346     | 10.621     | 14.687     |  32.2 | 57.98
Modify  | 0.024237   | 4.0924     | 4.3679     |  51.9 | 22.34
Other   |            | 0.007188   |            |       |  0.04

Nlocal:    62.5 ave 68 max 57 min
Histogram: 1 1 5 0 1 1 3 1 0 3
Nghost:    1862 ave 1879 max 1837 min
Histogram: 1 0 2 2 0 4 0 0 4 3
Neighs:    0 ave 0 max 0 min
Histogram: 16 0 0 0 0 0 0 0 0 0
FullNghs:  18910.8 ave 20691 max 17087 min
Histogram: 1 1 4 1 1 1 3 1 1 2

Total # of neighbors = 302572
Ave neighs/atom = 302.572
Neighbor list builds = 1000
Dangerous builds not checked
Setting up Verlet run ...
  Unit style    : real
  Current step  : 27000
  Time step     : 1
Per MPI rank memory allocation (min/avg/max) = 4.576 | 4.578 | 4.579 Mbytes
Step Temp E_pair E_mol TotEng Press Volume Lx Ly Lz S/CPU 
   27000    305.48115   -10531.598            0    -9621.927   -1071.4477    780.17589    9.2058559    9.2058559    9.2058559            0 
   27100    297.68463   -10508.685            0    -9622.231   -6371.3067    783.22166    9.2178201    9.2178201    9.2178201    42.560351 
   27200    295.23016     -10501.2            0   -9622.0548   -1772.2261    785.69299    9.2275051    9.2275051    9.2275051    37.676007 
   27300    301.14435   -10518.195            0   -9621.4383   -10116.131    787.42833    9.2342936    9.2342936    9.2342936    50.411908 
   27400    294.60769    -10497.75            0   -9620.4584   -7586.6743    788.21873    9.2373823    9.2373823    9.2373823    55.100096 
   27500    298.54136   -10507.601            0   -9618.5962   -2990.7396    788.26209    9.2375517    9.2375517    9.2375517    46.435032 
   27600     301.6084   -10515.376            0   -9617.2379   -19908.157    787.71503    9.2354142    9.2354142    9.2354142    61.799817 
   27700    298.47432   -10504.212            0   -9615.4067    5436.6266    786.39281    9.2302439    9.2302439    9.2302439    61.945539 
   27800    296.85788   -10496.901            0   -9612.9092   -651.74451    784.78946    9.2239666    9.2239666    9.2239666     51.66112 
   27900    306.65016   -10523.267            0   -9610.1147    10901.064    783.00962    9.2169882    9.2169882    9.2169882    56.781694 
   28000     302.0558   -10503.916            0   -9604.4458    -1644.156    781.45886    9.2108994    9.2108994    9.2108994     59.44601 
Loop time of 19.5674 on 16 procs for 1000 steps with 1000 atoms

[...]
 1082700    289.95078   -11606.123            0   -10742.699    3356.8223     725.7159    8.9864648    8.9864648    8.9864648    48.184661 
 1082800    290.35849   -11595.066            0   -10730.428    9421.7251    724.78617    8.9826256    8.9826256    8.9826256    49.359911 
 1082900    285.22985   -11563.883            0   -10714.518    8316.0621    724.14345    8.9799697    8.9799697    8.9799697     71.10679 
 1083000    293.77711   -11574.801            0   -10699.983    7971.9524    724.11888    8.9798681    8.9798681    8.9798681    65.274169 
 1083100    285.96713    -11536.33            0   -10684.769    13249.094    724.77974    8.9825991    8.9825991    8.9825991    40.918066 
 1083200    296.12546   -11555.657            0   -10673.846    15382.317     726.0863    8.9879934    8.9879934    8.9879934    54.697646 
 1083300      292.899   -11537.148            0   -10664.945   -8517.0024    727.80448    8.9950775    8.9950775    8.9950775    66.849467 
 1083400    290.36601   -11519.803            0   -10655.143    2137.8564    729.52482    9.0021592    9.0021592    9.0021592    54.572136 
 1083500    305.62935   -11557.702            0    -10647.59   -13503.138    730.78771    9.0073508    9.0073508    9.0073508    61.067231 
 1083600    296.43919   -11520.523            0   -10637.777   -22065.841    731.28066    9.0093757    9.0093757    9.0093757    55.658093 
 1083700    295.88923   -11510.677            0   -10629.569   -20848.159    730.66471    9.0068454    9.0068454    9.0068454    47.811476 
 1083800    294.48289   -11499.258            0   -10622.338   -11011.474    729.23361    9.0009612    9.0009612    9.0009612    58.430806 
 1083900    300.38392   -11509.939            0   -10615.447     4367.192    727.59219    8.9942028    8.9942028    8.9942028    55.682587 
 1084000    308.36736   -11528.493            0   -10610.228    5243.9453    726.25099     8.988673     8.988673     8.988673    50.470493 
 1084100    299.55589   -11497.488            0   -10605.461    17525.047     725.5637    8.9858366    8.9858366    8.9858366    71.104185 
 1084200    298.28273   -11489.961            0   -10601.726    17064.658    725.77521    8.9867096    8.9867096    8.9867096    63.019687 
 1084300    303.75335   -11504.604            0   -10600.078    17243.109    726.90323     8.991363     8.991363     8.991363    46.175168 
 1084400    297.62463   -11484.296            0    -10598.02    1087.7738    728.60266    8.9983646    8.9983646    8.9983646    55.732199 
 1084500    298.84561   -11487.073            0   -10597.162   -14520.508    730.27579    9.0052471    9.0052471    9.0052471     63.46788 
 1084600    300.15664   -11491.419            0   -10597.604   -6315.8602    731.36381    9.0097171    9.0097171    9.0097171     70.92905 
 1084700    309.11035   -11518.084            0   -10597.606   -12762.216    731.67646    9.0110008    9.0110008    9.0110008    50.931637 
 1084800    295.02651   -11475.374            0   -10596.835   -10070.009      730.953    9.0080299    9.0080299    9.0080299    50.005477 
 1084900    305.10013   -11508.715            0   -10600.179   -2945.8635     729.5014    9.0020629    9.0020629    9.0020629    67.814239 
 1085000    289.48855   -11463.634            0   -10601.586    2604.5812    727.87785    8.9953797    8.9953797    8.9953797    52.142083 
 1085100    308.31649   -11526.449            0   -10608.335    7548.3719    726.27976    8.9887916    8.9887916    8.9887916    55.499461 
 1085200    304.07779    -11521.42            0   -10615.928    19741.219    725.21333    8.9843899    8.9843899    8.9843899     65.70781 
 1085300    296.92668   -11510.554            0   -10626.357    20633.612    725.09192    8.9838885    8.9838885    8.9838885    57.615055 
 1085400     308.9013   -11558.659            0   -10638.804   -8387.1892    725.89504    8.9872042    8.9872042    8.9872042    59.814403 
 1085500    302.11146   -11552.047            0   -10652.411    7516.0687    726.96467    8.9916163    8.9916163    8.9916163    68.037307 
 1085600    291.61665   -11531.471            0   -10663.086    1446.7578    728.11927    8.9963741    8.9963741    8.9963741     68.75663 
 1085700    295.29215    -11552.53            0     -10673.2   -19229.206    729.17887     9.000736     9.000736     9.000736    51.398231 
 1085800    293.61618   -11551.998            0   -10677.659    -10220.39    729.61569     9.002533     9.002533     9.002533    60.874552 
 1085900    292.63823   -11552.476            0   -10681.049   -8381.8425    729.35222    9.0014492    9.0014492    9.0014492    63.585789 
 1086000    295.01792   -11562.957            0   -10684.444   -8857.6195    728.38172    8.9974549    8.9974549    8.9974549    52.018342 
 1086100    294.57849    -11559.52            0   -10682.315    9409.8883    727.11303     8.992228     8.992228     8.992228    61.206863 
 1086200    289.47873   -11542.916            0   -10680.898    6837.6054    726.02634     8.987746     8.987746     8.987746      62.6827 
 1086300    290.68764   -11542.805            0   -10677.187    5802.0649    725.52676    8.9856841    8.9856841    8.9856841     38.38989 
 1086400    293.70291   -11545.662            0   -10671.065    3743.1455    725.55002    8.9857801    8.9857801    8.9857801    71.309968 
 1086500    303.41583   -11567.944            0   -10664.423    17125.497    726.12031    8.9881338    8.9881338    8.9881338    67.157057 
 1086600    296.33196   -11538.603            0   -10656.177   -4378.3325    727.19453     8.992564     8.992564     8.992564    64.963987 
 1086700     286.7327   -11501.119            0   -10647.278   -2641.4964    728.49663     8.997928     8.997928     8.997928    46.939845 
 1086800    293.44185    -11513.98            0    -10640.16   -9604.8766    729.41081    9.0016903    9.0016903    9.0016903    62.007514 
 1086900    298.18108   -11521.023            0   -10633.091   -15466.803    729.85649    9.0035233    9.0035233    9.0035233    59.777841 
 1087000     306.6684   -11542.048            0   -10628.842   -12433.963    729.66025    9.0027163    9.0027163    9.0027163    68.819825 
 1087100     302.6657   -11525.523            0   -10624.236   -897.76782    728.90785    8.9996208    8.9996208    8.9996208    51.086989 
 1087200    306.66573   -11534.508            0    -10621.31    4799.2652    727.90861    8.9955065    8.9955065    8.9955065    63.011294 
 1087300    311.54022   -11548.736            0   -10621.023    20400.902     727.0707    8.9920535    8.9920535    8.9920535    69.745002 
 1087400    292.96461   -11491.861            0   -10619.463    12246.857    726.92355    8.9914468    8.9914468    8.9914468    64.757351 
 1087500    300.77785   -11516.039            0   -10620.374    3234.2321    727.20437    8.9926045    8.9926045    8.9926045    58.245433 
 1087600    303.93677   -11526.446            0   -10621.374    4894.7836    727.89427    8.9954474    8.9954474    8.9954474    50.994374 
 1087700    300.76721   -11518.133            0   -10622.499   -1821.9248     728.7793    8.9990917    8.9990917    8.9990917    71.221975 
 1087800    296.64673   -11506.277            0   -10622.914   -2745.9167    729.52273    9.0021506    9.0021506    9.0021506    48.096742 
 1087900    301.24392   -11519.923            0    -10622.87   -1763.3806    729.89736    9.0036913    9.0036913    9.0036913    48.862363 
 1088000    297.46954   -11507.691            0   -10621.878   -14916.039    729.83075    9.0034174    9.0034174    9.0034174    58.987236 
 1088100    300.66093     -11519.3            0   -10623.983   -2347.4374    729.29619    9.0012187    9.0012187    9.0012187    50.092299 
 1088200    302.06825   -11524.159            0   -10624.651   -3510.7948    728.41031    8.9975727    8.9975727    8.9975727    66.942331 
 1088300    301.28549   -11524.321            0   -10627.144   -3231.4089    727.38832    8.9933627    8.9933627    8.9933627    74.103284 
 1088400    302.99956   -11532.561            0    -10630.28    3305.6148    726.51486    8.9897615    8.9897615    8.9897615    58.668873 
 1088500    298.73107   -11524.298            0   -10634.728    11115.197     725.7792    8.9867261    8.9867261    8.9867261     52.48538 
 1088600    297.42718   -11526.589            0   -10640.902    7185.9676    725.49379     8.985548     8.985548     8.985548    64.101459 
 1088700    293.85714   -11525.351            0   -10650.295   -8751.1227    725.68766    8.9863483    8.9863483    8.9863483    64.797584 
 1088800    286.55304   -11513.972            0   -10660.666    14016.371    726.22933    8.9885836    8.9885836    8.9885836    49.390796 
 1088900    299.57105   -11567.818            0   -10675.746   -3364.0786    727.10964     8.992214     8.992214     8.992214     65.57261 
 1089000    296.52848   -11571.873            0   -10688.861   -11189.534    727.83477    8.9952023    8.9952023    8.9952023    63.835459 
 1089100    287.71999   -11554.753            0   -10697.972   -14406.132    727.94781    8.9956679    8.9956679    8.9956679    56.446159 
 1089200    295.24679   -11585.288            0   -10706.094   -11759.417    727.40373    8.9934262    8.9934262    8.9934262    68.758371 
 1089300    296.09457   -11592.407            0   -10710.688     40.03328    726.56805    8.9899808    8.9899808    8.9899808    62.179957 
 1089400    280.43163   -11545.993            0   -10710.916    7698.3471    725.89378     8.987199     8.987199     8.987199    49.988636 
 1089500    293.92423   -11586.891            0   -10711.634   -3849.1662    725.60839    8.9860211    8.9860211    8.9860211    54.815687 
 1089600    284.58828   -11555.417            0   -10707.962   -17.715422    725.55496    8.9858005    8.9858005    8.9858005    66.734637 
 1089700    300.40135   -11599.619            0   -10705.075    2757.8012    725.77628    8.9867141    8.9867141    8.9867141     69.60299 
 1089800     283.1392   -11539.448            0   -10696.308   -6060.4381    726.22105    8.9885494    8.9885494    8.9885494    62.488687 
 1089900    289.65236   -11551.584            0   -10689.049    8335.3451    726.64413    8.9902946    8.9902946    8.9902946    51.937592 
 1090000     294.9063    -11559.57            0   -10681.389    1635.8493    727.08311    8.9921047    8.9921047    8.9921047    53.156273 
 1090100    293.34259   -11547.454            0    -10673.93   -9142.3553    727.53982     8.993987     8.993987     8.993987    72.776576 
 1090200    302.34604   -11565.957            0   -10665.622   -4014.4036    727.90096    8.9954749    8.9954749    8.9954749    54.655987 
 1090300    303.23007     -11561.9            0   -10658.932     7937.224     727.9872    8.9958302    8.9958302    8.9958302     65.72819 
 1090400    309.38879    -11576.62            0   -10655.313   -8215.6334    727.92808    8.9955867    8.9955867    8.9955867    64.449823 
 1090500    307.80886   -11568.266            0   -10651.664   -6789.3572    727.70901    8.9946842    8.9946842    8.9946842    49.998651 
 1090600    305.28865   -11557.984            0   -10648.887   -2965.4557     727.4254    8.9935155    8.9935155    8.9935155    61.039341 
 1090700    306.36659   -11558.174            0   -10645.867     897.9756    727.20205    8.9925949    8.9925949    8.9925949    65.668055 
 1090800    302.52549   -11544.691            0   -10643.822   -5205.5816    726.99515     8.991742     8.991742     8.991742    54.909447 
 1090900    305.94117   -11552.825            0   -10641.784   -1587.5269     726.8041    8.9909543    8.9909543    8.9909543    71.441478 
 1091000    296.52337   -11520.972            0   -10637.976     7130.116    726.77965    8.9908535    8.9908535    8.9908535    47.068377 
 1091100    309.23071   -11557.035            0   -10636.199    8805.1415    727.19079    8.9925485    8.9925485    8.9925485    49.109866 
 1091200    313.91057   -11569.239            0   -10634.467   -316.77543     728.0228    8.9959768    8.9959768    8.9959768    69.463486 
 1091300    308.97407   -11551.395            0   -10631.323   -10918.826    728.74312    8.9989428    8.9989428    8.9989428     73.52061 
 1091400    298.09791   -11515.101            0   -10627.416   -14894.074    728.99485    8.9999788    8.9999788    8.9999788     55.04695 
 1091500    311.51536   -11554.084            0   -10626.444   -2669.8465    728.67494    8.9986621    8.9986621    8.9986621    50.781579 
 1091600    296.15736   -11505.667            0   -10623.761   -344.04648     728.0841    8.9962293    8.9962293    8.9962293    63.991406 
 1091700    292.97015   -11495.529            0   -10623.114    8704.7593    727.43942    8.9935733    8.9935733    8.9935733    74.891275 
 1091800    301.07761   -11519.386            0   -10622.828    15267.838    726.95412    8.9915728    8.9915728    8.9915728    63.086561 
 1091900    303.32266   -11524.604            0   -10621.361    3857.5496    726.85254     8.991154     8.991154     8.991154    53.723462 
 1092000    299.95588   -11512.582            0   -10619.364   -1639.2625    726.88451    8.9912858    8.9912858    8.9912858    67.291031 
 1092100    298.75635   -11508.099            0   -10618.453    8004.4013     726.8476    8.9911337    8.9911337    8.9911337    60.742762 
 1092200    302.32928   -11517.961            0   -10617.676   -14331.811    727.06899    8.9920464    8.9920464    8.9920464     59.69209 
 1092300    303.04077   -11519.066            0   -10616.662    3616.8092    727.56171    8.9940772    8.9940772    8.9940772    59.197095 
 1092400    303.11095   -11517.493            0    -10614.88    6180.9838    728.32184    8.9972084    8.9972084    8.9972084     60.14703 
 1092500    300.72382   -11509.837            0   -10614.333   -88.405003    729.26343    9.0010839    9.0010839    9.0010839    58.021365 
 1092600    305.31502   -11522.875            0   -10613.699   -6170.0727    729.95313    9.0039206    9.0039206    9.0039206    54.507898 
 1092700    296.38751    -11495.75            0   -10613.158   -3673.2114    730.16536    9.0047932    9.0047932    9.0047932    62.253061 
 1092800    305.73699   -11524.121            0   -10613.688    -16241.55     729.9918    9.0040796    9.0040796    9.0040796    52.460974 
 1092900    306.26269   -11526.686            0   -10614.688    -11065.19    729.35452    9.0014587    9.0014587    9.0014587    65.127572 
 1093000    306.86896   -11531.311            0   -10617.507   -9994.0894    728.29856    8.9971125    8.9971125    8.9971125    63.335753 
 1093100    307.56784   -11536.547            0   -10620.663    -943.3468    727.09683    8.9921612    8.9921612    8.9921612    46.671279 
 1093200    306.18696   -11536.242            0    -10624.47    10824.074    726.11905    8.9881286    8.9881286    8.9881286    63.580267 
 1093300    299.27243   -11522.419            0   -10631.237    11909.874    725.63609    8.9861354    8.9861354    8.9861354    71.631515 
 1093400    297.02406   -11521.679            0   -10637.192     8366.094    725.76417    8.9866641    8.9866641    8.9866641     61.60972 
 1093500    296.91541   -11529.995            0   -10645.831    441.16358    726.58198    8.9900383    8.9900383    8.9900383    48.313142 
 1093600    303.56801   -11557.502            0   -10653.529    539.28986    727.90676    8.9954988    8.9954988    8.9954988    51.247293 
 1093700    297.80688   -11547.432            0   -10660.614    3318.0502    729.39034     9.001606     9.001606     9.001606    66.620083 
 1093800    293.93996   -11541.924            0   -10666.621   -14681.479    730.69916     9.006987     9.006987     9.006987    55.820783 
 1093900    298.88095   -11560.881            0   -10670.864   -7219.5235    731.25463    9.0092688    9.0092688    9.0092688    50.043697 
 1094000    290.21106   -11537.311            0   -10673.112   -19073.899     730.9615    9.0080648    9.0080648    9.0080648    59.704071 
 1094100    281.45056    -11511.67            0   -10673.559   -8297.3473    729.46767    9.0019242    9.0019242    9.0019242    58.171941 
 1094200    300.82105   -11570.969            0   -10675.175   -6922.9542    727.22263    8.9926797    8.9926797    8.9926797    52.836595 
 1094300    310.03096   -11596.358            0   -10673.138    20397.621    724.73278     8.982405     8.982405     8.982405    57.115831 
 1094400    302.04399   -11567.363            0   -10667.928    23968.435    722.99889     8.975236     8.975236     8.975236      61.7504 
 1094500    295.25828   -11537.989            0    -10658.76     26826.69    722.36707    8.9726208    8.9726208    8.9726208     63.05199 
 1094600     290.1369   -11513.506            0   -10649.527    18733.075    723.15882    8.9758977    8.9758977    8.9758977    52.830658 
 1094700    296.65476   -11521.711            0   -10638.324    12607.229    725.10622    8.9839476    8.9839476    8.9839476    60.186812 
 1094800    296.79573   -11508.909            0   -10625.102   -2613.5644    727.62321    8.9943306    8.9943306    8.9943306    70.912691 
 1094900     298.9249   -11500.531            0   -10610.384   -6667.6183    730.25948    9.0051801    9.0051801    9.0051801    61.271366 
 1095000    303.26682   -11501.477            0     -10598.4   -21378.883      732.489    9.0143352    9.0143352    9.0143352    61.386581 
 1095100    304.18808   -11493.842            0   -10588.022   -15712.487    733.58161     9.018815     9.018815     9.018815    52.653919 
 1095200     304.4137   -11490.041            0   -10583.549   -24836.158     733.2602    9.0174977    9.0174977    9.0174977     67.91035 
 1095300    308.31373   -11496.955            0    -10578.85    -18615.76    731.64145     9.010857     9.010857     9.010857     59.26303 
 1095400    306.39946   -11488.548            0   -10576.143    4679.4427    729.18511    9.0007617    9.0007617    9.0007617    61.693494 
 1095500    300.56858   -11470.528            0   -10575.486    5952.6833    726.63333    8.9902501    8.9902501    8.9902501     54.41184 
 1095600    303.12585   -11479.936            0   -10577.279    12809.606    724.69475    8.9822479    8.9822479    8.9822479    56.489785 
 1095700    313.49751    -11514.24            0   -10580.698    33422.481     723.9057    8.9789868    8.9789868    8.9789868    57.180385 
 1095800    312.15833    -11514.11            0   -10584.556    25243.202    724.83639    8.9828331    8.9828331    8.9828331    73.310949 
 1095900    316.70792   -11535.516            0   -10592.414    5013.4983    726.97528    8.9916601    8.9916601    8.9916601    45.019845 
 1096000    307.66975   -11514.623            0   -10598.435   -7505.1596    729.67131    9.0027618    9.0027618    9.0027618    59.699076 
Loop time of 1724.42 on 16 procs for 100000 steps with 1000 atoms

Performance: 5.010 ns/day, 4.790 hours/ns, 57.991 timesteps/s
94.5% CPU use with 16 MPI tasks x no OpenMP threads

MPI task timing breakdown:
Section |  min time  |  avg time  |  max time  |%varavg| %total
---------------------------------------------------------------
Pair    | 164.05     | 175.21     | 184.77     |  57.4 | 10.16
Neigh   | 59.26      | 63.316     | 67.763     |  36.2 |  3.67
Comm    | 42.425     | 55.484     | 69.995     | 138.7 |  3.22
Output  | 967.21     | 996.35     | 1427.5     | 352.7 | 57.78
Modify  | 2.1092     | 433.36     | 462.52     | 534.9 | 25.13
Other   |            | 0.7049     |            |       |  0.04

Nlocal:    62.5 ave 69 max 56 min
Histogram: 2 2 1 2 2 1 1 1 1 3
Nghost:    1955.81 ave 1967 max 1941 min
Histogram: 1 1 0 1 1 4 3 2 2 1
Neighs:    0 ave 0 max 0 min
Histogram: 16 0 0 0 0 0 0 0 0 0
FullNghs:  20126.8 ave 22270 max 17957 min
Histogram: 1 2 2 2 3 0 1 1 1 3

Total # of neighbors = 322028
Ave neighs/atom = 322.028
Neighbor list builds = 100000
Dangerous builds not checked
Total wall time: 5:40:27
