LAMMPS (16 Mar 2018)
Reading data file ...
  orthogonal box = (-4.73806 -4.73806 -4.73806) to (4.73806 4.73806 4.73806)
  2 by 2 by 4 MPI processor grid
  reading atoms ...
  1000 atoms
Reading potential file /home/fs01/ajm529/lammps-16Mar18/potentials/sw_potentials/AG/eps2.23.sw with DATE: 2008-01-29
Neighbor list info ...
  update every 1 steps, delay 0 steps, check no
  max neighbors/atom: 2000, page size: 100000
  master list distance cutoff = 3.836
  ghost atom cutoff = 3.836
  binsize = 1.918, bins = 5 5 5
  1 neighbor lists, perpetual/occasional/extra = 1 0 0
  (1) pair sw, perpetual
      attributes: full, newton on
      pair build: full/bin/atomonly
      stencil: full/bin/3d
      bin: standard
Setting up Verlet run ...
  Unit style    : real
  Current step  : 0
  Time step     : 1
Per MPI rank memory allocation (min/avg/max) = 3.517 | 3.518 | 3.52 Mbytes
Step Temp E_pair E_mol TotEng Press Volume Lx Ly Lz S/CPU 
       0          300     -10007.4            0   -9114.0513    -29395.17    850.92715    9.4761253    9.4761253    9.4761253            0 
     100     337.1199   -10125.238            0   -9121.3529    -46174.84    848.97271    9.4688647    9.4688647    9.4688647    74.844011 
     200    339.76403   -10148.125            0   -9136.3655   -36565.228    843.41237    9.4481473    9.4481473    9.4481473    80.007705 
     300    340.78499   -10177.246            0   -9162.4462   -34879.004    835.31998    9.4178324    9.4178324    9.4178324    65.460175 
     400    328.76168   -10168.049            0   -9189.0531     -4262.29    825.48326    9.3807182    9.3807182    9.3807182    85.723771 
     500    346.22692   -10241.295            0   -9210.2899   -188.75439    815.44038    9.3425208    9.3425208    9.3425208     80.69018 
     600    332.99811   -10220.387            0   -9228.7751    3121.9971    806.41414    9.3079215    9.3079215    9.3079215    70.521974 
     700    336.09623   -10249.966            0   -9249.1286    15665.217    799.16755    9.2799566    9.2799566    9.2799566     62.73232 
     800    332.76119   -10261.194            0   -9270.2882    4385.1064    793.97097    9.2597986    9.2597986    9.2597986     75.00995 
     900    343.73851   -10318.125            0     -9294.53    9545.0341    790.46273      9.24614      9.24614      9.24614    90.124777 
    1000    331.65343   -10308.322            0   -9320.7152    18321.146    788.37752    9.2380025    9.2380025    9.2380025      65.5478 
Loop time of 13.4999 on 16 procs for 1000 steps with 1000 atoms

Performance: 6.400 ns/day, 3.750 hours/ns, 74.075 timesteps/s
95.2% CPU use with 16 MPI tasks x no OpenMP threads

MPI task timing breakdown:
Section |  min time  |  avg time  |  max time  |%varavg| %total
---------------------------------------------------------------
Pair    | 2.0929     | 2.2145     | 2.3998     |   5.2 | 16.40
Neigh   | 0.73286    | 0.7842     | 0.84039    |   3.0 |  5.81
Comm    | 0.77073    | 1.0099     | 1.1834     |  10.1 |  7.48
Output  | 6.2768     | 6.4776     | 9.438      |  30.0 | 47.98
Modify  | 0.042762   | 3.0055     | 3.2069     |  44.1 | 22.26
Other   |            | 0.008142   |            |       |  0.06

Nlocal:    62.5 ave 68 max 55 min
Histogram: 1 1 0 2 3 0 5 2 0 2
Nghost:    1852.06 ave 1872 max 1836 min
Histogram: 4 1 1 1 0 3 3 1 1 1
Neighs:    0 ave 0 max 0 min
Histogram: 16 0 0 0 0 0 0 0 0 0
FullNghs:  18711.6 ave 20336 max 16549 min
Histogram: 2 0 0 2 3 1 2 4 0 2

Total # of neighbors = 299386
Ave neighs/atom = 299.386
Neighbor list builds = 1000
Dangerous builds not checked
Setting up Verlet run ...
  Unit style    : real
  Current step  : 1000
  Time step     : 1
Per MPI rank memory allocation (min/avg/max) = 3.769 | 4.527 | 4.579 Mbytes
Step Temp E_pair E_mol TotEng Press Volume Lx Ly Lz S/CPU 
    1000    331.65343   -10308.322            0   -9320.7152    18321.146    788.37752    9.2380025    9.2380025    9.2380025            0 
    1100    329.86187   -10327.274            0   -9345.0016    1359.9385    787.75647    9.2355761    9.2355761    9.2355761    61.832102 
    1200    318.25994   -10316.761            0   -9369.0371   -1476.3341    788.19747    9.2372992    9.2372992    9.2372992     71.87763 
    1300    322.09181   -10351.975            0   -9392.8401   -3905.9199    789.02158    9.2405175    9.2405175    9.2405175    65.912118 
    1400    332.19508    -10405.52            0   -9416.2995   -327.74883    790.04121    9.2444962    9.2444962    9.2444962    60.622924 
    1500    318.37167   -10386.158            0   -9438.1018   -4235.5563    790.97786    9.2481481    9.2481481    9.2481481    76.611169 
    1600    326.44873   -10432.153            0   -9460.0448   -11336.955    791.60136    9.2505775    9.2505775    9.2505775    77.827753 
    1700    305.18664   -10388.909            0   -9480.1155   -9405.0683    791.68806    9.2509152    9.2509152    9.2509152      57.6288 
    1800    299.33265    -10389.51            0   -9498.1485   -12768.334    791.01021    9.2482742    9.2482742    9.2482742    92.947583 
    1900     303.2257   -10418.997            0   -9516.0423    1241.4862    789.85519    9.2437706    9.2437706    9.2437706    70.204115 
    2000    302.07836   -10432.515            0   -9532.9769   -3772.0093    788.65097    9.2390705    9.2390705    9.2390705    87.245768 
Loop time of 14.1472 on 16 procs for 1000 steps with 1000 atoms

Performance: 6.107 ns/day, 3.930 hours/ns, 70.686 timesteps/s
95.3% CPU use with 16 MPI tasks x no OpenMP threads

MPI task timing breakdown:
Section |  min time  |  avg time  |  max time  |%varavg| %total
---------------------------------------------------------------
Pair    | 2.3093     | 2.4292     | 2.6264     |   5.9 | 17.17
Neigh   | 0.77201    | 0.81215    | 0.86926    |   3.1 |  5.74
Comm    | 0.7238     | 0.97973    | 1.1379     |  11.9 |  6.93
Output  | 6.2776     | 6.504      | 9.8501     |  33.9 | 45.97
Modify  | 0.06719    | 3.4137     | 3.6404     |  46.8 | 24.13
Other   |            | 0.008378   |            |       |  0.06

Nlocal:    62.5 ave 70 max 56 min
Histogram: 2 1 0 2 3 4 2 1 0 1
Nghost:    1857.19 ave 1870 max 1840 min
Histogram: 2 0 2 0 1 2 3 1 2 3
Neighs:    0 ave 0 max 0 min
Histogram: 16 0 0 0 0 0 0 0 0 0
FullNghs:  18720.6 ave 20902 max 16746 min
Histogram: 2 1 0 2 4 1 4 1 0 1

Total # of neighbors = 299530
Ave neighs/atom = 299.53
Neighbor list builds = 1000
Dangerous builds not checked
Setting up Verlet run ...
  Unit style    : real
  Current step  : 2000
  Time step     : 1
Per MPI rank memory allocation (min/avg/max) = 4.576 | 4.578 | 4.579 Mbytes
Step Temp E_pair E_mol TotEng Press Volume Lx Ly Lz S/CPU 
    2000    302.07836   -10432.515            0   -9532.9769   -3772.0093    788.65097    9.2390705    9.2390705    9.2390705            0 
    2100    305.65246   -10459.339            0   -9549.1579   -2851.0723    787.12742    9.2331172    9.2331172    9.2331172    65.049415 
    2200    314.53789   -10500.517            0   -9563.8773   -8367.4415    785.32192    9.2260522    9.2260522    9.2260522      72.3226 
    2300    296.50377   -10461.188            0   -9578.2501    265.20188    783.11816    9.2174141    9.2174141    9.2174141    79.676085 
    2400    301.13317   -10487.449            0   -9590.7263    1098.5424    780.38026    9.2066597    9.2066597    9.2066597    88.477959 
    2500    297.98075   -10487.591            0   -9600.2557    19994.849    777.63553    9.1958533    9.1958533    9.1958533    62.612545 
    2600    304.45247   -10515.934            0   -9609.3261    24789.899    775.69694    9.1882054    9.1882054    9.1882054    72.693673 
    2700    302.56563   -10519.671            0   -9618.6824    20351.412    774.95623    9.1852798    9.1852798    9.1852798    64.010952 
    2800    302.80063    -10531.09            0   -9629.4015    9045.3147     775.3234    9.1867302    9.1867302    9.1867302    61.982072 
    2900    293.37239   -10510.725            0   -9637.1122    2768.0622    776.63513    9.1919082    9.1919082    9.1919082     77.12216 
    3000    293.14057   -10518.811            0   -9645.8889    4360.0491    778.70338    9.2000606    9.2000606    9.2000606    69.810886 
Loop time of 14.1828 on 16 procs for 1000 steps with 1000 atoms

Performance: 6.092 ns/day, 3.940 hours/ns, 70.508 timesteps/s
95.3% CPU use with 16 MPI tasks x no OpenMP threads

MPI task timing breakdown:
Section |  min time  |  avg time  |  max time  |%varavg| %total
---------------------------------------------------------------
Pair    | 2.294      | 2.4928     | 2.6715     |   5.6 | 17.58
Neigh   | 0.76604    | 0.82016    | 0.86025    |   2.5 |  5.78
Comm    | 0.76672    | 0.98495    | 1.2378     |  11.0 |  6.94
Output  | 6.0633     | 6.301      | 9.8172     |  36.2 | 44.43
Modify  | 0.058533   | 3.5755     | 3.8133     |  48.0 | 25.21
Other   |            | 0.008342   |            |       |  0.06

Nlocal:    62.5 ave 69 max 59 min
Histogram: 4 2 1 0 4 1 1 1 1 1
Nghost:    1862.56 ave 1879 max 1842 min
Histogram: 2 0 3 1 0 2 1 3 2 2
Neighs:    0 ave 0 max 0 min
Histogram: 16 0 0 0 0 0 0 0 0 0
FullNghs:  18939.2 ave 21154 max 17632 min
Histogram: 4 2 1 3 2 0 1 1 1 1

Total # of neighbors = 303028
Ave neighs/atom = 303.028
Neighbor list builds = 1000
Dangerous builds not checked
Setting up Verlet run ...
  Unit style    : real
  Current step  : 3000
  Time step     : 1
Per MPI rank memory allocation (min/avg/max) = 4.577 | 4.578 | 4.579 Mbytes
Step Temp E_pair E_mol TotEng Press Volume Lx Ly Lz S/CPU 
    3000    293.14057   -10518.811            0   -9645.8889    4360.0491    778.70338    9.2000606    9.2000606    9.2000606            0 
    3100    272.61931   -10464.515            0   -9652.7013    5038.7362    780.99574    9.2090795    9.2090795    9.2090795     62.87933 
    3200    298.08196   -10547.105            0   -9659.4681    2339.0508    783.28782    9.2180797    9.2180797    9.2180797    63.361398 
    3300    295.53314   -10543.689            0   -9663.6422   -15665.219    785.48319    9.2266837    9.2266837    9.2266837    59.013235 
    3400    290.02141   -10528.845            0   -9665.2109   -2296.2824    787.01468    9.2326764    9.2326764    9.2326764    73.398542 
    3500    291.28895   -10531.633            0   -9664.2245   -4766.5852    788.06745    9.2367913    9.2367913    9.2367913    62.253469 
    3600    305.27974   -10571.254            0   -9662.1835   -12819.741    788.68974    9.2392219    9.2392219    9.2392219    63.687063 
    3700    295.47289   -10535.602            0   -9655.7338    4560.7446    789.29533     9.241586     9.241586     9.241586    68.873957 
    3800    285.84952   -10498.166            0   -9646.9545   -667.08594    790.06232    9.2445785    9.2445785    9.2445785    57.152841 
    3900    292.27834   -10508.399            0    -9638.044   -32249.947    790.39112    9.2458608    9.2458608    9.2458608    84.031618 
    4000    296.23667   -10510.043            0   -9627.9003   -21445.972    789.64978    9.2429692    9.2429692    9.2429692    61.289189 
Loop time of 15.4254 on 16 procs for 1000 steps with 1000 atoms

Performance: 5.601 ns/day, 4.285 hours/ns, 64.828 timesteps/s
95.1% CPU use with 16 MPI tasks x no OpenMP threads

MPI task timing breakdown:
Section |  min time  |  avg time  |  max time  |%varavg| %total
---------------------------------------------------------------
Pair    | 2.193      | 2.4284     | 2.6176     |   5.9 | 15.74
Neigh   | 0.7501     | 0.81218    | 0.87415    |   2.9 |  5.27
Comm    | 0.7745     | 1.0253     | 1.3227     |  11.5 |  6.65
Output  | 7.3155     | 7.5529     | 11.061     |  33.0 | 48.96
Modify  | 0.089883   | 3.5984     | 3.8369     |  47.8 | 23.33
Other   |            | 0.008249   |            |       |  0.05

Nlocal:    62.5 ave 67 max 58 min
Histogram: 1 1 2 1 2 3 3 2 0 1
Nghost:    1856.56 ave 1881 max 1830 min
Histogram: 1 1 1 2 4 1 1 2 1 2
Neighs:    0 ave 0 max 0 min
Histogram: 16 0 0 0 0 0 0 0 0 0
FullNghs:  18694.1 ave 19964 max 17195 min
Histogram: 1 2 0 2 0 4 3 1 2 1

Total # of neighbors = 299106
Ave neighs/atom = 299.106
Neighbor list builds = 1000
Dangerous builds not checked
Setting up Verlet run ...
  Unit style    : real
  Current step  : 4000
  Time step     : 1
Per MPI rank memory allocation (min/avg/max) = 4.577 | 4.578 | 4.579 Mbytes
Step Temp E_pair E_mol TotEng Press Volume Lx Ly Lz S/CPU 
    4000    296.23667   -10510.043            0   -9627.9003   -21445.972    789.64978    9.2429692    9.2429692    9.2429692            0 
    4100    290.47567   -10480.897            0   -9615.9096   -405.35723    788.15987    9.2371524    9.2371524    9.2371524    54.141161 
    4200    304.86827    -10513.01            0   -9605.1643    4096.6237    786.38919    9.2302298    9.2302298    9.2302298    78.586809 
    4300    312.48884   -10524.209            0   -9593.6708    449.57399    784.57655    9.2231324    9.2231324    9.2231324    82.406409 
    4400    295.51062   -10464.081            0   -9584.1009    7242.3706    782.90526    9.2165787    9.2165787    9.2165787      69.7013 
    4500    303.13549   -10478.733            0   -9576.0474   -10302.215    781.72219    9.2119339    9.2119339    9.2119339    68.672681 
    4600    298.36812   -10456.466            0   -9567.9762   -3096.1174    780.42064    9.2068185    9.2068185    9.2068185    73.047386 
    4700    306.71017   -10473.803            0   -9560.4726    1812.7014    779.17245    9.2019075    9.2019075    9.2019075    69.509403 
    4800    303.18866   -10458.989            0   -9556.1448    10741.717    778.90623    9.2008594    9.2008594    9.2008594    62.813868 
    4900    303.04701   -10453.148            0   -9550.7262    20415.078    779.95026    9.2049684    9.2049684    9.2049684    79.976084 
    5000    302.62361   -10448.969            0   -9547.8077   -4027.4593    781.76208    9.2120906    9.2120906    9.2120906    74.195316 
Loop time of 14.2217 on 16 procs for 1000 steps with 1000 atoms

Performance: 6.075 ns/day, 3.950 hours/ns, 70.315 timesteps/s
95.3% CPU use with 16 MPI tasks x no OpenMP threads

MPI task timing breakdown:
Section |  min time  |  avg time  |  max time  |%varavg| %total
---------------------------------------------------------------
Pair    | 2.341      | 2.5092     | 2.6903     |   5.5 | 17.64
Neigh   | 0.76841    | 0.82431    | 0.87164    |   2.6 |  5.80
Comm    | 0.70723    | 0.93509    | 1.1594     |  11.2 |  6.58
Output  | 6.309      | 6.5359     | 9.8897     |  33.9 | 45.96
Modify  | 0.054138   | 3.4088     | 3.6361     |  46.9 | 23.97
Other   |            | 0.008366   |            |       |  0.06

Nlocal:    62.5 ave 67 max 58 min
Histogram: 1 1 1 2 4 2 1 2 1 1
Nghost:    1859.06 ave 1879 max 1836 min
Histogram: 2 0 1 1 3 2 3 1 1 2
Neighs:    0 ave 0 max 0 min
Histogram: 16 0 0 0 0 0 0 0 0 0
FullNghs:  18888.9 ave 20336 max 17472 min
Histogram: 1 1 1 3 3 2 1 1 1 2

Total # of neighbors = 302222
Ave neighs/atom = 302.222
Neighbor list builds = 1000
Dangerous builds not checked
Setting up Verlet run ...
  Unit style    : real
  Current step  : 5000
  Time step     : 1
Per MPI rank memory allocation (min/avg/max) = 4.577 | 4.578 | 4.579 Mbytes
Step Temp E_pair E_mol TotEng Press Volume Lx Ly Lz S/CPU 
    5000    302.62361   -10448.969            0   -9547.8077   -4027.4593    781.76208    9.2120906    9.2120906    9.2120906            0 
    5100    314.50934   -10483.574            0   -9547.0192    8286.2427    783.56446    9.2191648    9.2191648    9.2191648    65.531041 
    5200    312.25001   -10477.765            0   -9547.9379   -8247.4973    785.64459    9.2273156    9.2273156    9.2273156    59.481036 
    5300    307.07159   -10466.039            0    -9551.632   -10053.354    787.31157    9.2338371    9.2338371    9.2338371    75.891826 
    5400    304.62875   -10464.425            0   -9557.2925   -4165.7334    788.01422    9.2365833    9.2365833    9.2365833    78.827126 
    5500    309.00523   -10486.266            0   -9566.1007   -7925.5065    787.96002    9.2363715    9.2363715    9.2363715    57.139448 
    5600    304.92003   -10484.137            0   -9576.1377    -13958.99    787.05767    9.2328444    9.2328444    9.2328444    67.738281 
    5700    304.63085   -10493.779            0   -9586.6407   -6065.2815    785.27047    9.2258507    9.2258507    9.2258507    77.676447 
    5800    293.18066   -10469.616            0   -9596.5739   -7969.2248    783.07323    9.2172378    9.2172378    9.2172378    74.164892 
    5900    314.81945   -10545.797            0   -9608.3181   -289.69165    780.62908    9.2076381    9.2076381    9.2076381    63.918187 
    6000    296.14262   -10498.237            0   -9616.3748    8145.9082    778.29015    9.1984329    9.1984329    9.1984329    85.779676 
Loop time of 14.3859 on 16 procs for 1000 steps with 1000 atoms

Performance: 6.006 ns/day, 3.996 hours/ns, 69.513 timesteps/s
95.2% CPU use with 16 MPI tasks x no OpenMP threads

MPI task timing breakdown:
Section |  min time  |  avg time  |  max time  |%varavg| %total
---------------------------------------------------------------
Pair    | 2.3322     | 2.423      | 2.6048     |   4.9 | 16.84
Neigh   | 0.76123    | 0.80234    | 0.84918    |   2.6 |  5.58
Comm    | 0.77015    | 1.0005     | 1.1324     |   9.7 |  6.95
Output  | 6.5079     | 6.735      | 10.091     |  33.4 | 46.82
Modify  | 0.060022   | 3.4167     | 3.6438     |  46.9 | 23.75
Other   |            | 0.008346   |            |       |  0.06

Nlocal:    62.5 ave 68 max 60 min
Histogram: 3 3 4 1 0 3 0 1 0 1
Nghost:    1867.69 ave 1876 max 1858 min
Histogram: 1 1 1 2 0 3 4 2 1 1
Neighs:    0 ave 0 max 0 min
Histogram: 16 0 0 0 0 0 0 0 0 0
FullNghs:  18943.1 ave 20713 max 18038 min
Histogram: 3 2 4 1 2 2 0 1 0 1

Total # of neighbors = 303090
Ave neighs/atom = 303.09
Neighbor list builds = 1000
Dangerous builds not checked
Setting up Verlet run ...
  Unit style    : real
  Current step  : 6000
  Time step     : 1
Per MPI rank memory allocation (min/avg/max) = 4.577 | 4.578 | 4.579 Mbytes
Step Temp E_pair E_mol TotEng Press Volume Lx Ly Lz S/CPU 
    6000    296.14262   -10498.237            0   -9616.3748    8145.9082    778.29015    9.1984329    9.1984329    9.1984329            0 
    6100    295.04534   -10503.644            0   -9625.0499    4190.9413    776.54312    9.1915452    9.1915452    9.1915452    69.300164 
    6200    301.53145   -10530.206            0    -9632.297    2635.6454    775.31726     9.186706     9.186706     9.186706    53.304508 
    6300    302.17231    -10536.94            0   -9637.1225    4348.0038    774.63116    9.1839953    9.1839953    9.1839953    73.279297 
    6400    295.79543   -10521.744            0   -9640.9154    22272.861    774.41815    9.1831535    9.1831535    9.1831535    65.248928 
    6500    303.15184   -10546.777            0    -9644.043    9413.9714    775.26858    9.1865137    9.1865137    9.1865137    54.579341 
    6600    290.32937   -10510.195            0   -9645.6434    19976.613    776.98071    9.1932714    9.1932714    9.1932714    79.329452 
    6700    300.99855   -10543.247            0   -9646.9248    18803.664    779.70627    9.2040084    9.2040084    9.2040084    74.400814 
    6800    297.66272   -10533.324            0   -9646.9353   -2946.9336    782.82524    9.2162647    9.2162647    9.2162647     76.74962 
    6900    286.11513   -10497.632            0   -9645.6302   -12484.178    785.56695    9.2270116    9.2270116    9.2270116    51.737945 
    7000    299.28225   -10535.152            0   -9643.9404   -15195.514    787.36602      9.23405      9.23405      9.23405     80.15764 
Loop time of 15.1364 on 16 procs for 1000 steps with 1000 atoms

Performance: 5.708 ns/day, 4.205 hours/ns, 66.066 timesteps/s
95.2% CPU use with 16 MPI tasks x no OpenMP threads

MPI task timing breakdown:
Section |  min time  |  avg time  |  max time  |%varavg| %total
---------------------------------------------------------------
Pair    | 2.36       | 2.4887     | 2.6508     |   5.5 | 16.44
Neigh   | 0.78395    | 0.81477    | 0.87672    |   2.6 |  5.38
Comm    | 0.77353    | 0.99747    | 1.1409     |  10.7 |  6.59
Output  | 7.1689     | 7.3976     | 10.778     |  32.1 | 48.87
Modify  | 0.048744   | 3.4295     | 3.6583     |  47.1 | 22.66
Other   |            | 0.008327   |            |       |  0.06

Nlocal:    62.5 ave 67 max 59 min
Histogram: 2 2 2 3 0 0 4 1 1 1
Nghost:    1842.5 ave 1857 max 1829 min
Histogram: 2 2 0 2 0 4 2 2 1 1
Neighs:    0 ave 0 max 0 min
Histogram: 16 0 0 0 0 0 0 0 0 0
FullNghs:  18741.9 ave 20252 max 17631 min
Histogram: 3 1 2 3 0 2 2 1 1 1

Total # of neighbors = 299870
Ave neighs/atom = 299.87
Neighbor list builds = 1000
Dangerous builds not checked
Setting up Verlet run ...
  Unit style    : real
  Current step  : 7000
  Time step     : 1
Per MPI rank memory allocation (min/avg/max) = 4.577 | 4.578 | 4.579 Mbytes
Step Temp E_pair E_mol TotEng Press Volume Lx Ly Lz S/CPU 
    7000    299.28225   -10535.152            0   -9643.9404   -15195.514    787.36602      9.23405      9.23405      9.23405            0 
    7100      285.268    -10487.94            0   -9638.4605   -7034.5421    788.22834    9.2374198    9.2374198    9.2374198    73.542994 
    7200    311.64011   -10561.086            0   -9633.0751   -24439.211     788.4018    9.2380974    9.2380974    9.2380974    58.614629 
    7300    298.61085   -10513.763            0    -9624.551    -6952.331    787.53631    9.2347157    9.2347157    9.2347157    65.114587 
    7400    300.58898   -10509.059            0   -9613.9559   -3759.6358    786.05002    9.2289026    9.2289026    9.2289026     73.63717 
    7500    298.40346   -10489.317            0   -9600.7229   -6809.0595    784.25546     9.221874     9.221874     9.221874    60.651095 
    7600    314.12664   -10521.748            0   -9586.3326    9015.5731    782.24139    9.2139729    9.2139729    9.2139729    78.555123 
    7700     297.4719   -10459.057            0   -9573.2366    10283.179    780.53735    9.2072774    9.2072774    9.2072774     72.17738 
    7800     304.5235   -10469.961            0   -9563.1415    26886.787    779.38457    9.2027425    9.2027425    9.2027425    78.458603 
    7900    308.32565   -10475.243            0   -9557.1016    13928.086    779.46669    9.2030657    9.2030657    9.2030657    59.374797 
    8000    304.98226   -10462.312            0   -9554.1268    12731.438    780.72795    9.2080268    9.2080268    9.2080268    72.027362 
Loop time of 14.614 on 16 procs for 1000 steps with 1000 atoms

Performance: 5.912 ns/day, 4.059 hours/ns, 68.428 timesteps/s
95.2% CPU use with 16 MPI tasks x no OpenMP threads

MPI task timing breakdown:
Section |  min time  |  avg time  |  max time  |%varavg| %total
---------------------------------------------------------------
Pair    | 2.183      | 2.4823     | 2.6461     |   6.8 | 16.99
Neigh   | 0.75224    | 0.81842    | 0.8717     |   2.9 |  5.60
Comm    | 0.76563    | 0.98206    | 1.347      |  13.1 |  6.72
Output  | 6.7404     | 6.9619     | 10.234     |  32.0 | 47.64
Modify  | 0.088333   | 3.361      | 3.5825     |  46.1 | 23.00
Other   |            | 0.008321   |            |       |  0.06

Nlocal:    62.5 ave 69 max 58 min
Histogram: 4 0 2 1 3 3 0 1 1 1
Nghost:    1869.19 ave 1905 max 1839 min
Histogram: 1 2 2 2 2 2 2 1 1 1
Neighs:    0 ave 0 max 0 min
Histogram: 16 0 0 0 0 0 0 0 0 0
FullNghs:  18901.9 ave 21039 max 17252 min
Histogram: 4 0 1 2 1 4 1 1 1 1

Total # of neighbors = 302430
Ave neighs/atom = 302.43
Neighbor list builds = 1000
Dangerous builds not checked
Setting up Verlet run ...
  Unit style    : real
  Current step  : 8000
  Time step     : 1
Per MPI rank memory allocation (min/avg/max) = 4.577 | 4.578 | 4.579 Mbytes
Step Temp E_pair E_mol TotEng Press Volume Lx Ly Lz S/CPU 
    8000    304.98226   -10462.312            0   -9554.1268    12731.438    780.72795    9.2080268    9.2080268    9.2080268            0 
    8100    307.73799   -10470.499            0   -9554.1077    7625.4429    782.78457    9.2161051    9.2161051    9.2161051    59.105161 
    8200    299.44637    -10446.19            0   -9554.4901   -15650.695    785.38608    9.2263034    9.2263034    9.2263034    58.200856 
    8300    304.92376   -10463.637            0    -9555.626   -5849.0458    787.68619    9.2353015    9.2353015    9.2353015    82.235556 
    8400    304.15286   -10460.925            0   -9555.2095   -6382.0097    789.08006    9.2407458    9.2407458    9.2407458     69.13969 
    8500    301.08327   -10453.198            0   -9556.6236   -4826.8536    790.11185    9.2447717    9.2447717    9.2447717     63.40194 
    8600      307.588   -10474.506            0   -9558.5613   -7713.5607    791.26065    9.2492501    9.2492501    9.2492501    65.287584 
    8700    306.37871   -10472.541            0    -9560.198    -10099.93    792.29625    9.2532835    9.2532835    9.2532835    68.964463 
    8800    311.44009   -10489.741            0   -9562.3253   -10500.001    792.90964    9.2556708    9.2556708    9.2556708    57.230218 
    8900    299.92039   -10457.436            0   -9564.3245   -18064.757    792.69817    9.2548479    9.2548479    9.2548479    77.982786 
    9000    300.41925   -10463.094            0   -9568.4964   -3799.1812    791.43902     9.249945     9.249945     9.249945    60.063614 
Loop time of 15.326 on 16 procs for 1000 steps with 1000 atoms

Performance: 5.637 ns/day, 4.257 hours/ns, 65.249 timesteps/s
95.1% CPU use with 16 MPI tasks x no OpenMP threads

MPI task timing breakdown:
Section |  min time  |  avg time  |  max time  |%varavg| %total
---------------------------------------------------------------
Pair    | 2.2758     | 2.4434     | 2.6635     |   6.1 | 15.94
Neigh   | 0.76937    | 0.8165     | 0.8827     |   3.2 |  5.33
Comm    | 0.69957    | 0.98532    | 1.1997     |  12.4 |  6.43
Output  | 7.0376     | 7.2898     | 11.003     |  35.5 | 47.56
Modify  | 0.068335   | 3.7827     | 4.035      |  49.3 | 24.68
Other   |            | 0.008263   |            |       |  0.05

Nlocal:    62.5 ave 69 max 58 min
Histogram: 4 0 2 1 4 1 2 1 0 1
Nghost:    1850.31 ave 1866 max 1835 min
Histogram: 2 1 0 3 1 5 0 2 0 2
Neighs:    0 ave 0 max 0 min
Histogram: 16 0 0 0 0 0 0 0 0 0
FullNghs:  18654.2 ave 20892 max 17273 min
Histogram: 2 2 2 3 3 1 1 1 0 1

Total # of neighbors = 298468
Ave neighs/atom = 298.468
Neighbor list builds = 1000
Dangerous builds not checked
Setting up Verlet run ...
  Unit style    : real
  Current step  : 9000
  Time step     : 1
Per MPI rank memory allocation (min/avg/max) = 4.577 | 4.578 | 4.579 Mbytes
Step Temp E_pair E_mol TotEng Press Volume Lx Ly Lz S/CPU 
    9000    300.41925   -10463.094            0   -9568.4964   -3799.1812    791.43902     9.249945     9.249945     9.249945            0 
    9100    296.32192   -10453.464            0   -9571.0678   -6981.0659    789.59299    9.2427476    9.2427476    9.2427476    61.405723 
    9200    310.06897   -10499.541            0   -9576.2081    3593.6551    787.49199    9.2345424    9.2345424    9.2345424    65.493916 
    9300    310.31274   -10504.152            0   -9580.0936   -10697.526    785.71877     9.227606     9.227606     9.227606    68.352526 
    9400    300.58308   -10478.885            0   -9583.8001    5122.1633    784.14427    9.2214381    9.2214381    9.2214381     70.05296 
    9500    294.69398     -10465.2            0   -9587.6519   -468.60163    783.14322    9.2175124    9.2175124    9.2175124    59.763143 
    9600    293.28966   -10468.275            0    -9594.908    15562.485    782.52245    9.2150763    9.2150763    9.2150763     72.19081 
    9700    293.59365   -10478.342            0   -9604.0707    6973.5501    782.44023    9.2147535    9.2147535    9.2147535    89.211906 
    9800     293.2898    -10491.14            0   -9617.7733    1753.9426    782.86151    9.2164071    9.2164071    9.2164071    59.154358 
    9900    296.21299   -10514.959            0   -9632.8874    6719.6108    783.26175    9.2179774    9.2179774    9.2179774    61.957642 
   10000     291.0299   -10513.369            0   -9646.7317   -9570.8598    783.62534    9.2194035    9.2194035    9.2194035    80.604826 
Loop time of 14.7704 on 16 procs for 1000 steps with 1000 atoms

Performance: 5.850 ns/day, 4.103 hours/ns, 67.703 timesteps/s
95.2% CPU use with 16 MPI tasks x no OpenMP threads

MPI task timing breakdown:
Section |  min time  |  avg time  |  max time  |%varavg| %total
---------------------------------------------------------------
Pair    | 2.2639     | 2.3892     | 2.6812     |   6.1 | 16.18
Neigh   | 0.76774    | 0.79642    | 0.87054    |   3.0 |  5.39
Comm    | 0.65629    | 1.0244     | 1.1743     |  11.8 |  6.94
Output  | 7.1868     | 7.3949     | 10.466     |  29.2 | 50.07
Modify  | 0.083028   | 3.1571     | 3.3664     |  44.7 | 21.37
Other   |            | 0.008498   |            |       |  0.06

Nlocal:    62.5 ave 65 max 55 min
Histogram: 1 0 0 0 0 0 2 5 3 5
Nghost:    1853.69 ave 1876 max 1837 min
Histogram: 2 3 2 1 1 2 1 2 0 2
Neighs:    0 ave 0 max 0 min
Histogram: 16 0 0 0 0 0 0 0 0 0
FullNghs:  18824.1 ave 19732 max 16394 min
Histogram: 1 0 0 0 0 1 5 4 1 4

Total # of neighbors = 301186
Ave neighs/atom = 301.186
Neighbor list builds = 1000
Dangerous builds not checked
Setting up Verlet run ...
  Unit style    : real
  Current step  : 10000
  Time step     : 1
Per MPI rank memory allocation (min/avg/max) = 4.577 | 4.578 | 4.579 Mbytes
Step Temp E_pair E_mol TotEng Press Volume Lx Ly Lz S/CPU 
   10000     291.0299   -10513.369            0   -9646.7317   -9570.8598    783.62534    9.2194035    9.2194035    9.2194035            0 
   10100    288.54083    -10517.53            0   -9658.3049     -8411.91    783.65625    9.2195247    9.2195247    9.2195247    71.854108 
   10200    287.67039   -10521.844            0   -9665.2107   -8057.4488    782.98929    9.2169084    9.2169084    9.2169084    72.337316 
   10300     294.9249   -10547.852            0   -9669.6156   -12661.021    781.84593    9.2124199    9.2124199    9.2124199    65.759568 
   10400    299.26558   -10562.467            0    -9671.305   -7601.8067    780.45421    9.2069505    9.2069505    9.2069505    82.581927 
   10500    294.56635   -10547.942            0   -9670.7737   -5910.4114    778.65989    9.1998893    9.1998893    9.1998893    73.956058 
   10600    285.07458   -10515.982            0   -9667.0788    13793.074    776.54973    9.1915712    9.1915712    9.1915712    52.541562 
   10700    286.85971   -10516.899            0     -9662.68    16206.093    774.96574    9.1853174    9.1853174    9.1853174    68.558541 
   10800    301.25048   -10555.168            0   -9658.0959    12406.227    774.58009    9.1837935    9.1837935    9.1837935    61.892209 
   10900    289.56496   -10515.016            0   -9652.7408    9329.9158    775.27466    9.1865377    9.1865377    9.1865377     57.16028 
   11000     294.1485   -10522.477            0   -9646.5532    12141.112    776.55613    9.1915965    9.1915965    9.1915965    74.221535 
Loop time of 14.9323 on 16 procs for 1000 steps with 1000 atoms

Performance: 5.786 ns/day, 4.148 hours/ns, 66.969 timesteps/s
95.2% CPU use with 16 MPI tasks x no OpenMP threads

MPI task timing breakdown:
Section |  min time  |  avg time  |  max time  |%varavg| %total
---------------------------------------------------------------
Pair    | 2.3438     | 2.4862     | 2.7272     |   6.2 | 16.65
Neigh   | 0.78237    | 0.81481    | 0.88855    |   3.2 |  5.46
Comm    | 0.68838    | 1.0081     | 1.1847     |  12.4 |  6.75
Output  | 6.6239     | 6.8709     | 10.526     |  36.0 | 46.01
Modify  | 0.093715   | 3.7439     | 3.9936     |  48.7 | 25.07
Other   |            | 0.008295   |            |       |  0.06

Nlocal:    62.5 ave 66 max 58 min
Histogram: 1 1 1 2 0 3 2 2 3 1
Nghost:    1869.94 ave 1899 max 1844 min
Histogram: 2 1 3 1 1 3 0 2 2 1
Neighs:    0 ave 0 max 0 min
Histogram: 16 0 0 0 0 0 0 0 0 0
FullNghs:  19009.1 ave 20292 max 17453 min
Histogram: 1 1 1 1 3 1 3 3 1 1

Total # of neighbors = 304146
Ave neighs/atom = 304.146
Neighbor list builds = 1000
Dangerous builds not checked
Setting up Verlet run ...
  Unit style    : real
  Current step  : 11000
  Time step     : 1
Per MPI rank memory allocation (min/avg/max) = 4.577 | 4.578 | 4.579 Mbytes
Step Temp E_pair E_mol TotEng Press Volume Lx Ly Lz S/CPU 
   11000     294.1485   -10522.477            0   -9646.5532    12141.112    776.55613    9.1915965    9.1915965    9.1915965            0 
   11100    298.79494    -10531.69            0   -9641.9297   -3250.4038    778.27611    9.1983776    9.1983776    9.1983776    66.572318 
   11200    292.25678   -10507.121            0   -9636.8303   -6076.7258    780.29916    9.2063408    9.2063408    9.2063408    63.766856 
   11300    289.13372   -10492.844            0   -9631.8531   -18574.498    782.38693    9.2145443    9.2145443    9.2145443    72.865621 
   11400     294.5584    -10506.12            0    -9628.975   -2887.1385    784.22496    9.2217544    9.2217544    9.2217544    73.541125 
   11500    290.27186   -10488.627            0   -9624.2469   -10013.171    785.43541    9.2264966    9.2264966    9.2264966      56.6501 
   11600    293.14927   -10495.572            0    -9622.624   -3529.3945    786.16003    9.2293331    9.2293331    9.2293331    60.685733 
   11700    300.36581   -10514.515            0   -9620.0767   -23504.593    786.78636    9.2317834    9.2317834    9.2317834    64.671212 
   11800    308.08793   -10535.557            0   -9618.1234   -10258.437    786.55792    9.2308899    9.2308899    9.2308899     66.57401 
   11900    310.81729   -10543.416            0   -9617.8557   -3286.3354    785.80672    9.2279503    9.2279503    9.2279503    66.889995 
   12000    303.59004    -10520.84            0   -9616.8006   -2369.5429    784.76299    9.2238629    9.2238629    9.2238629    80.709899 
Loop time of 14.998 on 16 procs for 1000 steps with 1000 atoms

Performance: 5.761 ns/day, 4.166 hours/ns, 66.676 timesteps/s
95.2% CPU use with 16 MPI tasks x no OpenMP threads

MPI task timing breakdown:
Section |  min time  |  avg time  |  max time  |%varavg| %total
---------------------------------------------------------------
Pair    | 2.3166     | 2.4323     | 2.6411     |   5.6 | 16.22
Neigh   | 0.77673    | 0.80798    | 0.88247    |   3.3 |  5.39
Comm    | 0.7088     | 0.99182    | 1.1391     |  11.5 |  6.61
Output  | 7.0359     | 7.266      | 10.669     |  32.6 | 48.45
Modify  | 0.087924   | 3.4915     | 3.7218     |  47.0 | 23.28
Other   |            | 0.008301   |            |       |  0.06

Nlocal:    62.5 ave 67 max 59 min
Histogram: 2 3 1 2 0 3 1 1 2 1
Nghost:    1857 ave 1870 max 1841 min
Histogram: 1 0 1 3 3 0 2 3 1 2
Neighs:    0 ave 0 max 0 min
Histogram: 16 0 0 0 0 0 0 0 0 0
FullNghs:  18802.4 ave 20090 max 17638 min
Histogram: 2 3 0 1 2 3 1 1 1 2

Total # of neighbors = 300838
Ave neighs/atom = 300.838
Neighbor list builds = 1000
Dangerous builds not checked
Setting up Verlet run ...
  Unit style    : real
  Current step  : 12000
  Time step     : 1
Per MPI rank memory allocation (min/avg/max) = 4.577 | 4.578 | 4.579 Mbytes
Step Temp E_pair E_mol TotEng Press Volume Lx Ly Lz S/CPU 
   12000    303.59004    -10520.84            0   -9616.8006   -2369.5429    784.76299    9.2238629    9.2238629    9.2238629            0 
   12100    291.56311    -10484.36            0    -9616.135    4039.4422    783.29342    9.2181016    9.2181016    9.2181016    75.772921 
   12200    300.64681   -10512.355            0   -9617.0797   -2462.9155    781.75918    9.2120792    9.2120792    9.2120792    55.005601 
   12300    304.49129   -10523.425            0   -9616.7018    469.89033    780.66255    9.2077697    9.2077697    9.2077697    67.545401 
   12400    297.80549   -10503.313            0   -9616.4992   -2011.5592    780.02522    9.2052633    9.2052633    9.2052633    86.496928 
   12500    299.28507   -10509.394            0   -9618.1744    4070.8261    779.32189    9.2024957    9.2024957    9.2024957    61.174957 
   12600    303.28317   -10523.728            0   -9620.6028    2798.2798    779.06485    9.2014839    9.2014839    9.2014839     63.51327 
   12700    291.20242   -10489.585            0   -9622.4337    10488.177    779.34812     9.202599     9.202599     9.202599    82.718571 
   12800    305.99775   -10537.134            0   -9625.9253   -2678.5483    780.00182    9.2051712    9.2051712    9.2051712    80.489944 
   12900    304.84572   -10538.141            0   -9630.3625    1928.1067    781.04581    9.2092763    9.2092763    9.2092763    54.350072 
   13000    298.49066   -10522.999            0   -9634.1448   -9399.0052    782.76717    9.2160368    9.2160368    9.2160368    74.120231 
Loop time of 14.6239 on 16 procs for 1000 steps with 1000 atoms

Performance: 5.908 ns/day, 4.062 hours/ns, 68.381 timesteps/s
95.2% CPU use with 16 MPI tasks x no OpenMP threads

MPI task timing breakdown:
Section |  min time  |  avg time  |  max time  |%varavg| %total
---------------------------------------------------------------
Pair    | 2.3112     | 2.4426     | 2.7154     |   6.3 | 16.70
Neigh   | 0.77035    | 0.80827    | 0.8873     |   3.4 |  5.53
Comm    | 0.70642    | 1.0579     | 1.2255     |  12.5 |  7.23
Output  | 6.7739     | 6.995      | 10.261     |  31.9 | 47.83
Modify  | 0.045153   | 3.3118     | 3.533      |  46.3 | 22.65
Other   |            | 0.008273   |            |       |  0.06

Nlocal:    62.5 ave 71 max 55 min
Histogram: 2 1 1 2 3 2 1 2 1 1
Nghost:    1866.12 ave 1889 max 1843 min
Histogram: 3 0 4 0 0 4 0 0 2 3
Neighs:    0 ave 0 max 0 min
Histogram: 16 0 0 0 0 0 0 0 0 0
FullNghs:  18838.8 ave 21564 max 16381 min
Histogram: 2 1 0 3 4 1 1 2 1 1

Total # of neighbors = 301420
Ave neighs/atom = 301.42
Neighbor list builds = 1000
Dangerous builds not checked
Setting up Verlet run ...
  Unit style    : real
  Current step  : 13000
  Time step     : 1
Per MPI rank memory allocation (min/avg/max) = 4.577 | 4.578 | 4.579 Mbytes
Step Temp E_pair E_mol TotEng Press Volume Lx Ly Lz S/CPU 
   13000    298.49066   -10522.999            0   -9634.1448   -9399.0052    782.76717    9.2160368    9.2160368    9.2160368            0 
   13100    300.71083   -10536.176            0     -9640.71    2637.0503    784.34651    9.2222309    9.2222309    9.2222309    73.928942 
   13200    288.15629   -10506.887            0   -9648.8066    5842.0321    785.67298    9.2274267    9.2274267    9.2274267     64.64482 
   13300    296.53362   -10543.932            0   -9660.9054     8771.945    787.25452    9.2336141    9.2336141    9.2336141    76.745308 
   13400    292.72013    -10544.38            0   -9672.7097   -5015.4729    788.81688    9.2397183    9.2397183    9.2397183     69.89864 
   13500    278.74001    -10515.91            0   -9685.8696   -7691.9774    789.82076    9.2436363    9.2436363    9.2436363    70.539763 
   13600    286.05484   -10549.541            0    -9697.719   -24924.081    789.88472    9.2438858    9.2438858    9.2438858    58.052189 
   13700    285.67936   -10556.911            0   -9706.2067   -708.19466    788.69415    9.2392391    9.2392391    9.2392391    73.873634 
   13800    286.68175   -10564.356            0   -9710.6666     -2482.51    786.80717    9.2318648    9.2318648    9.2318648    77.140194 
   13900    286.12978   -10565.271            0   -9713.2249    13883.235     784.6724    9.2235079    9.2235079    9.2235079    64.420124 
   14000    280.46524    -10547.65            0   -9712.4725    2138.9522    783.10229    9.2173518    9.2173518    9.2173518    64.969285 
Loop time of 14.515 on 16 procs for 1000 steps with 1000 atoms

Performance: 5.952 ns/day, 4.032 hours/ns, 68.894 timesteps/s
95.2% CPU use with 16 MPI tasks x no OpenMP threads

MPI task timing breakdown:
Section |  min time  |  avg time  |  max time  |%varavg| %total
---------------------------------------------------------------
Pair    | 2.2755     | 2.4413     | 2.6463     |   6.1 | 16.82
Neigh   | 0.77       | 0.81478    | 0.87851    |   3.2 |  5.61
Comm    | 0.71078    | 0.98199    | 1.1913     |  12.4 |  6.77
Output  | 6.9747     | 7.1798     | 10.205     |  29.2 | 49.46
Modify  | 0.065602   | 3.0888     | 3.2936     |  44.4 | 21.28
Other   |            | 0.008292   |            |       |  0.06

Nlocal:    62.5 ave 66 max 56 min
Histogram: 1 0 0 1 0 4 1 3 1 5
Nghost:    1860.69 ave 1875 max 1841 min
Histogram: 1 1 1 0 1 4 3 2 1 2
Neighs:    0 ave 0 max 0 min
Histogram: 16 0 0 0 0 0 0 0 0 0
FullNghs:  18846.6 ave 19871 max 16795 min
Histogram: 1 0 0 1 1 3 2 2 2 4

Total # of neighbors = 301546
Ave neighs/atom = 301.546
Neighbor list builds = 1000
Dangerous builds not checked
Setting up Verlet run ...
  Unit style    : real
  Current step  : 14000
  Time step     : 1
Per MPI rank memory allocation (min/avg/max) = 4.577 | 4.578 | 4.579 Mbytes
Step Temp E_pair E_mol TotEng Press Volume Lx Ly Lz S/CPU 
   14000    280.46524    -10547.65            0   -9712.4725    2138.9522    783.10229    9.2173518    9.2173518    9.2173518            0 
   14100    290.72235   -10576.356            0   -9710.6346   -6670.6501    781.62403    9.2115483    9.2115483    9.2115483    72.704265 
   14200    282.54005   -10545.631            0   -9704.2745   -376.76344     780.0368    9.2053088    9.2053088    9.2053088    70.560849 
   14300    290.09325   -10559.326            0   -9695.4775    11290.692    778.53754    9.1994074    9.1994074    9.1994074    67.856096 
   14400    287.84055    -10540.13            0   -9682.9901    13181.522    777.32675    9.1946359    9.1946359    9.1946359    74.249898 
   14500    294.01722   -10545.111            0   -9669.5775    14051.199    777.05147    9.1935504    9.1935504    9.1935504    71.792398 
   14600    289.19075   -10517.984            0   -9656.8234    11270.273     777.7472    9.1962934    9.1962934    9.1962934    62.060638 
   14700    298.04278    -10536.18            0    -9648.659    16953.571    779.28559    9.2023528    9.2023528    9.2023528    69.677892 
   14800    298.61827   -10531.368            0   -9642.1335   -5532.4986    781.35231    9.2104808    9.2104808    9.2104808    88.231292 
   14900    296.44406    -10520.26            0   -9637.4997   -12975.832    783.21878    9.2178088    9.2178088    9.2178088    79.150857 
   15000    285.86304   -10484.149            0   -9632.8979   -21578.148    784.48864    9.2227879    9.2227879    9.2227879     56.86008 
Loop time of 14.2081 on 16 procs for 1000 steps with 1000 atoms

Performance: 6.081 ns/day, 3.947 hours/ns, 70.382 timesteps/s
95.2% CPU use with 16 MPI tasks x no OpenMP threads

MPI task timing breakdown:
Section |  min time  |  avg time  |  max time  |%varavg| %total
---------------------------------------------------------------
Pair    | 2.3394     | 2.4889     | 2.6477     |   5.2 | 17.52
Neigh   | 0.78347    | 0.82075    | 0.86359    |   2.1 |  5.78
Comm    | 0.77008    | 0.96247    | 1.1495     |  10.3 |  6.77
Output  | 6.5073     | 6.72       | 9.861      |  31.3 | 47.30
Modify  | 0.06623    | 3.2075     | 3.4203     |  45.3 | 22.58
Other   |            | 0.0084     |            |       |  0.06

Nlocal:    62.5 ave 68 max 54 min
Histogram: 1 0 2 1 1 2 1 4 2 2
Nghost:    1860.5 ave 1883 max 1836 min
Histogram: 1 2 0 2 4 1 2 1 1 2
Neighs:    0 ave 0 max 0 min
Histogram: 16 0 0 0 0 0 0 0 0 0
FullNghs:  18821.6 ave 20563 max 16151 min
Histogram: 1 0 1 2 1 2 3 2 2 2

Total # of neighbors = 301146
Ave neighs/atom = 301.146
Neighbor list builds = 1000
Dangerous builds not checked
Setting up Verlet run ...
  Unit style    : real
  Current step  : 15000
  Time step     : 1
Per MPI rank memory allocation (min/avg/max) = 4.577 | 4.578 | 4.579 Mbytes
Step Temp E_pair E_mol TotEng Press Volume Lx Ly Lz S/CPU 
   15000    285.86304   -10484.149            0   -9632.8979   -21578.148    784.48864    9.2227879    9.2227879    9.2227879            0 
   15100    295.26808   -10507.498            0   -9628.2396   -9153.9453    784.84398    9.2241802    9.2241802    9.2241802    71.412254 
   15200    300.34076   -10518.565            0   -9624.2015   -14842.029    785.08178    9.2251117    9.2251117    9.2251117    81.025842 
   15300     309.4842   -10542.345            0   -9620.7539   -18098.572    784.97363    9.2246881    9.2246881    9.2246881    63.291816 
   15400     293.9903   -10492.248            0   -9616.7952    -10193.57    784.18124    9.2215831    9.2215831    9.2215831    74.559697 
   15500    290.92285   -10480.548            0   -9614.2292    5670.7386    782.79019    9.2161272    9.2161272    9.2161272    83.765429 
   15600    300.97397   -10506.295            0   -9610.0458   -5101.8725    781.23975    9.2100385    9.2100385    9.2100385    66.007257 
   15700    299.65251   -10497.273            0   -9604.9587    325.70531    779.72361    9.2040767    9.2040767    9.2040767    55.545982 
   15800    301.83461   -10498.333            0   -9599.5213    9232.6577    778.55049    9.1994584    9.1994584    9.1994584    69.266726 
   15900    301.92125   -10494.835            0   -9595.7649    15401.133     777.6091    9.1957491    9.1957491    9.1957491     80.66043 
   16000    304.61375   -10497.146            0   -9590.0587    16064.466    777.29307    9.1945031    9.1945031    9.1945031    61.705659 
Loop time of 14.3689 on 16 procs for 1000 steps with 1000 atoms

Performance: 6.013 ns/day, 3.991 hours/ns, 69.595 timesteps/s
95.2% CPU use with 16 MPI tasks x no OpenMP threads

MPI task timing breakdown:
Section |  min time  |  avg time  |  max time  |%varavg| %total
---------------------------------------------------------------
Pair    | 2.279      | 2.4298     | 2.6139     |   5.7 | 16.91
Neigh   | 0.75578    | 0.80542    | 0.84735    |   2.5 |  5.61
Comm    | 0.79995    | 1.0124     | 1.2128     |  11.0 |  7.05
Output  | 6.5511     | 6.7728     | 10.048     |  32.5 | 47.14
Modify  | 0.064842   | 3.3402     | 3.5617     |  46.3 | 23.25
Other   |            | 0.008221   |            |       |  0.06

Nlocal:    62.5 ave 69 max 56 min
Histogram: 2 0 0 4 1 5 1 1 0 2
Nghost:    1851.31 ave 1865 max 1833 min
Histogram: 1 2 0 2 0 3 2 2 2 2
Neighs:    0 ave 0 max 0 min
Histogram: 16 0 0 0 0 0 0 0 0 0
FullNghs:  18993.9 ave 21060 max 17120 min
Histogram: 2 0 2 2 2 4 1 1 1 1

Total # of neighbors = 303902
Ave neighs/atom = 303.902
Neighbor list builds = 1000
Dangerous builds not checked
Setting up Verlet run ...
  Unit style    : real
  Current step  : 16000
  Time step     : 1
Per MPI rank memory allocation (min/avg/max) = 4.577 | 4.578 | 4.579 Mbytes
Step Temp E_pair E_mol TotEng Press Volume Lx Ly Lz S/CPU 
   16000    304.61375   -10497.146            0   -9590.0587    16064.466    777.29307    9.1945031    9.1945031    9.1945031            0 
   16100    304.87261    -10494.47            0   -9586.6117    12801.027    777.94503    9.1970731    9.1970731    9.1970731    70.765813 
   16200    302.09911    -10483.23            0   -9583.6301    8178.0238    779.51718    9.2032643    9.2032643    9.2032643    71.885221 
   16300    303.61865   -10487.742            0   -9583.6173   -4854.5128    781.83528    9.2123781    9.2123781    9.2123781    61.964754 
   16400    311.85685   -10513.051            0   -9584.3945    2061.5691    784.43514    9.2225782    9.2225782    9.2225782     65.94886 
   16500    298.59318   -10475.996            0   -9586.8366   -5950.8806    787.40091    9.2341864    9.2341864    9.2341864    66.761835 
   16600     296.1671    -10472.95            0   -9591.0151    -5540.161    790.26649    9.2453748    9.2453748    9.2453748    59.861587 
   16700    292.86857    -10468.93            0   -9596.8172    -8635.304    792.65604    9.2546839    9.2546839    9.2546839     54.18114 
   16800    305.40108   -10513.271            0   -9603.8388   -8642.9993    794.55473    9.2620674    9.2620674    9.2620674    82.290781 
   16900     304.3967   -10518.018            0   -9611.5767   -10471.931    795.67903     9.266434     9.266434     9.266434    77.288417 
   17000    296.23911   -10502.456            0   -9620.3068   -30155.817    795.90766    9.2673215    9.2673215    9.2673215    51.618495 
Loop time of 15.3948 on 16 procs for 1000 steps with 1000 atoms

Performance: 5.612 ns/day, 4.276 hours/ns, 64.957 timesteps/s
95.2% CPU use with 16 MPI tasks x no OpenMP threads

MPI task timing breakdown:
Section |  min time  |  avg time  |  max time  |%varavg| %total
---------------------------------------------------------------
Pair    | 2.2439     | 2.4048     | 2.5924     |   5.9 | 15.62
Neigh   | 0.767      | 0.80302    | 0.85517    |   2.6 |  5.22
Comm    | 0.75649    | 0.99595    | 1.1938     |  11.2 |  6.47
Output  | 7.2582     | 7.503      | 11.125     |  34.1 | 48.74
Modify  | 0.057173   | 3.6798     | 3.9248     |  48.8 | 23.90
Other   |            | 0.008219   |            |       |  0.05

Nlocal:    62.5 ave 67 max 58 min
Histogram: 2 2 0 2 2 2 1 1 3 1
Nghost:    1836.5 ave 1868 max 1808 min
Histogram: 2 0 2 3 1 2 2 3 0 1
Neighs:    0 ave 0 max 0 min
Histogram: 16 0 0 0 0 0 0 0 0 0
FullNghs:  18537.5 ave 19870 max 17033 min
Histogram: 2 1 1 2 2 1 1 2 2 2

Total # of neighbors = 296600
Ave neighs/atom = 296.6
Neighbor list builds = 1000
Dangerous builds not checked
Setting up Verlet run ...
  Unit style    : real
  Current step  : 17000
  Time step     : 1
Per MPI rank memory allocation (min/avg/max) = 4.577 | 4.578 | 4.579 Mbytes
Step Temp E_pair E_mol TotEng Press Volume Lx Ly Lz S/CPU 
   17000    296.23911   -10502.456            0   -9620.3068   -30155.817    795.90766    9.2673215    9.2673215    9.2673215            0 
   17100    290.41523   -10492.996            0   -9628.1887   -27138.818    794.61964    9.2623197    9.2623197    9.2623197     70.02768 
   17200    282.39825   -10477.561            0   -9636.6268   -12612.642    791.64595    9.2507511    9.2507511    9.2507511    74.615353 
   17300    291.00005   -10511.934            0   -9645.3858   -11120.758    787.22535    9.2335001    9.2335001    9.2335001    67.873049 
   17400    299.31037   -10544.561            0   -9653.2658   -12839.121    781.91219    9.2126802    9.2126802    9.2126802    63.559778 
   17500    293.48488   -10533.385            0   -9659.4369    7193.3084    776.10517    9.1898169    9.1898169    9.1898169    73.867328 
   17600    289.70265   -10525.458            0   -9662.7731    4217.8352    770.99092    9.1695866    9.1695866    9.1695866    72.450534 
   17700    286.50556   -10518.219            0   -9665.0542    30154.814    767.20142    9.1545387    9.1545387    9.1545387    54.516296 
   17800    291.54492    -10535.49            0   -9667.3193    35577.885    765.49703    9.1477545    9.1477545    9.1477545    62.228106 
   17900    299.15106   -10560.079            0   -9669.2581    35906.676    766.48157    9.1516747    9.1516747    9.1516747    76.276818 
   18000    305.17808   -10579.091            0   -9670.3226    22898.901    769.74553    9.1646467    9.1646467    9.1646467    59.520377 
Loop time of 14.9813 on 16 procs for 1000 steps with 1000 atoms

Performance: 5.767 ns/day, 4.161 hours/ns, 66.750 timesteps/s
95.1% CPU use with 16 MPI tasks x no OpenMP threads

MPI task timing breakdown:
Section |  min time  |  avg time  |  max time  |%varavg| %total
---------------------------------------------------------------
Pair    | 2.3461     | 2.5008     | 2.8202     |   7.4 | 16.69
Neigh   | 0.7684     | 0.81921    | 0.91148    |   3.6 |  5.47
Comm    | 0.59171    | 1.0032     | 1.2079     |  14.8 |  6.70
Output  | 7.0773     | 7.3004     | 10.597     |  31.5 | 48.73
Modify  | 0.052231   | 3.3494     | 3.5725     |  46.5 | 22.36
Other   |            | 0.008336   |            |       |  0.06

Nlocal:    62.5 ave 67 max 59 min
Histogram: 2 0 3 4 0 2 2 2 0 1
Nghost:    1882 ave 1891 max 1868 min
Histogram: 1 0 0 4 1 3 0 2 2 3
Neighs:    0 ave 0 max 0 min
Histogram: 16 0 0 0 0 0 0 0 0 0
FullNghs:  19173 ave 20649 max 17952 min
Histogram: 2 0 2 4 2 2 1 1 1 1

Total # of neighbors = 306768
Ave neighs/atom = 306.768
Neighbor list builds = 1000
Dangerous builds not checked
Setting up Verlet run ...
  Unit style    : real
  Current step  : 18000
  Time step     : 1
Per MPI rank memory allocation (min/avg/max) = 4.577 | 4.578 | 4.579 Mbytes
Step Temp E_pair E_mol TotEng Press Volume Lx Ly Lz S/CPU 
   18000    305.17808   -10579.091            0   -9670.3226    22898.901    769.74553    9.1646467    9.1646467    9.1646467            0 
   18100    296.90417   -10551.756            0   -9667.6256   -4238.2262    774.44825    9.1832724    9.1832724    9.1832724    71.868183 
   18200    294.01426    -10535.96            0   -9660.4359   -4913.9133    779.21775    9.2020858    9.2020858    9.2020858    77.076251 
   18300     300.0657   -10542.699            0   -9649.1541   -5064.6951    783.30436    9.2181446    9.2181446    9.2181446    67.943563 
   18400    286.28079   -10484.746            0   -9632.2502   -14506.469    786.60393    9.2310699    9.2310699    9.2310699    73.021265 
   18500    296.47446   -10498.836            0   -9615.9855   -8004.9995    788.60596    9.2388947    9.2388947    9.2388947    93.242313 
   18600    300.43735    -10495.95            0   -9601.2986     -12108.9    789.84516    9.2437315    9.2437315    9.2437315    81.315805 
   18700    298.01053   -10478.395            0   -9590.9704   -24475.367    790.21343    9.2451679    9.2451679    9.2451679      64.7434 
   18800    300.91017   -10479.842            0   -9583.7829   -9484.5752    789.15203    9.2410267    9.2410267    9.2410267    81.964511 
   18900    314.44318   -10514.262            0   -9577.9039    11921.735    787.61362    9.2350179    9.2350179    9.2350179    68.306149 
   19000    298.13171   -10462.012            0   -9574.2269    8541.1222    786.85319    9.2320448    9.2320448    9.2320448    60.682876 
Loop time of 13.7089 on 16 procs for 1000 steps with 1000 atoms

Performance: 6.302 ns/day, 3.808 hours/ns, 72.945 timesteps/s
95.3% CPU use with 16 MPI tasks x no OpenMP threads

MPI task timing breakdown:
Section |  min time  |  avg time  |  max time  |%varavg| %total
---------------------------------------------------------------
Pair    | 2.2355     | 2.3894     | 2.6222     |   5.6 | 17.43
Neigh   | 0.75337    | 0.79737    | 0.86567    |   3.0 |  5.82
Comm    | 0.7226     | 1.023      | 1.2208     |  11.0 |  7.46
Output  | 6.1362     | 6.3468     | 9.4562     |  31.9 | 46.30
Modify  | 0.033744   | 3.144      | 3.3547     |  45.3 | 22.93
Other   |            | 0.008406   |            |       |  0.06

Nlocal:    62.5 ave 66 max 57 min
Histogram: 1 0 1 0 2 3 4 2 2 1
Nghost:    1845.44 ave 1861 max 1835 min
Histogram: 2 3 2 3 1 0 1 2 1 1
Neighs:    0 ave 0 max 0 min
Histogram: 16 0 0 0 0 0 0 0 0 0
FullNghs:  18763.9 ave 19886 max 17034 min
Histogram: 1 0 0 1 2 4 3 2 1 2

Total # of neighbors = 300222
Ave neighs/atom = 300.222
Neighbor list builds = 1000
Dangerous builds not checked
Setting up Verlet run ...
  Unit style    : real
  Current step  : 19000
  Time step     : 1
Per MPI rank memory allocation (min/avg/max) = 4.577 | 4.578 | 4.579 Mbytes
Step Temp E_pair E_mol TotEng Press Volume Lx Ly Lz S/CPU 
   19000    298.13171   -10462.012            0   -9574.2269    8541.1222    786.85319    9.2320448    9.2320448    9.2320448            0 
   19100    294.89943   -10448.575            0   -9570.4152   -9986.2854    786.10335    9.2291113    9.2291113    9.2291113    82.272769 
   19200    311.41037   -10494.557            0   -9567.2297   -3268.1443    785.11824    9.2252545    9.2252545    9.2252545    76.376742 
   19300    308.02615   -10483.084            0   -9565.8346   -2315.7537    784.04418    9.2210458    9.2210458    9.2210458    66.019865 
   19400    311.24749   -10491.369            0   -9564.5276    9828.8996    783.20386    9.2177503    9.2177503    9.2177503    63.250916 
   19500    302.71119   -10465.726            0   -9564.3042   -404.27272    782.95992    9.2167932    9.2167932    9.2167932    72.709016 
   19600    300.42869   -10459.802            0   -9565.1767    19727.708    782.85708    9.2163897    9.2163897    9.2163897    83.473568 
   19700    302.53688   -10467.925            0   -9567.0219    8491.7914    783.36768    9.2183929    9.2183929    9.2183929    60.113077 
   19800    304.80138   -10477.813            0   -9570.1665   -2968.7495    784.55141    9.2230339    9.2230339    9.2230339    72.766522 
   19900    296.54677   -10455.737            0   -9572.6709    2159.2499     785.7775    9.2278359    9.2278359    9.2278359    65.711329 
   20000    299.75534   -10469.273            0   -9576.6523   -6002.1132    786.62973    9.2311708    9.2311708    9.2311708    60.661864 
Loop time of 14.4019 on 16 procs for 1000 steps with 1000 atoms

Performance: 5.999 ns/day, 4.001 hours/ns, 69.435 timesteps/s
95.2% CPU use with 16 MPI tasks x no OpenMP threads

MPI task timing breakdown:
Section |  min time  |  avg time  |  max time  |%varavg| %total
---------------------------------------------------------------
Pair    | 2.2776     | 2.405      | 2.6095     |   5.5 | 16.70
Neigh   | 0.77167    | 0.80234    | 0.86528    |   2.7 |  5.57
Comm    | 0.75397    | 1.0212     | 1.1792     |  10.7 |  7.09
Output  | 6.5436     | 6.77       | 10.114     |  33.2 | 47.01
Modify  | 0.05062    | 3.3953     | 3.622      |  46.9 | 23.58
Other   |            | 0.008202   |            |       |  0.06

Nlocal:    62.5 ave 68 max 57 min
Histogram: 1 2 1 3 2 1 2 0 2 2
Nghost:    1852.88 ave 1881 max 1832 min
Histogram: 2 1 3 3 1 2 0 3 0 1
Neighs:    0 ave 0 max 0 min
Histogram: 16 0 0 0 0 0 0 0 0 0
FullNghs:  18780.2 ave 20326 max 17093 min
Histogram: 1 2 2 1 2 2 0 3 0 3

Total # of neighbors = 300484
Ave neighs/atom = 300.484
Neighbor list builds = 1000
Dangerous builds not checked
Setting up Verlet run ...
  Unit style    : real
  Current step  : 20000
  Time step     : 1
Per MPI rank memory allocation (min/avg/max) = 4.577 | 4.578 | 4.579 Mbytes
Step Temp E_pair E_mol TotEng Press Volume Lx Ly Lz S/CPU 
   20000    299.75534   -10469.273            0   -9576.6523   -6002.1132    786.62973    9.2311708    9.2311708    9.2311708            0 
   20100    300.43813   -10477.784            0   -9583.1305   -5832.0524    786.69894    9.2314415    9.2314415    9.2314415    76.386086 
   20200    303.45565   -10494.067            0   -9590.4284    7040.4301    786.27989    9.2298021    9.2298021    9.2298021    79.588569 
   20300    300.42513   -10493.996            0   -9599.3815     1017.557    785.55051    9.2269472    9.2269472    9.2269472    78.154211 
   20400    308.19032    -10528.55            0   -9610.8123    2982.9563    784.44202    9.2226052    9.2226052    9.2226052    59.551121 
   20500    292.93421   -10495.092            0   -9622.7835   -2164.4191     783.2133    9.2177873    9.2177873    9.2177873    76.069541 
   20600    292.91155   -10507.256            0   -9635.0151   -5666.7474    781.56735    9.2113256    9.2113256    9.2113256    86.145512 
   20700    296.96773   -10530.412            0   -9646.0924    6140.5875    779.46513    9.2030595    9.2030595    9.2030595    57.766605 
   20800    297.71568   -10540.051            0    -9653.505    16015.565    777.68507    9.1960485    9.1960485    9.1960485    73.097796 
   20900    293.70156   -10531.388            0   -9656.7948    8363.9513     776.8096    9.1925964    9.1925964    9.1925964    82.381909 
   21000    297.31798   -10545.826            0    -9660.464    15045.928    776.53224    9.1915022    9.1915022    9.1915022    55.704358 
Loop time of 14.108 on 16 procs for 1000 steps with 1000 atoms

Performance: 6.124 ns/day, 3.919 hours/ns, 70.882 timesteps/s
95.3% CPU use with 16 MPI tasks x no OpenMP threads

MPI task timing breakdown:
Section |  min time  |  avg time  |  max time  |%varavg| %total
---------------------------------------------------------------
Pair    | 2.3238     | 2.4675     | 2.6999     |   5.0 | 17.49
Neigh   | 0.7802     | 0.81584    | 0.87629    |   2.4 |  5.78
Comm    | 0.71979    | 1.0119     | 1.1918     |   9.9 |  7.17
Output  | 6.3293     | 6.5471     | 9.7652     |  32.5 | 46.41
Modify  | 0.038176   | 3.257      | 3.475      |  46.1 | 23.09
Other   |            | 0.008644   |            |       |  0.06

Nlocal:    62.5 ave 68 max 56 min
Histogram: 1 1 0 0 3 5 2 3 0 1
Nghost:    1873.31 ave 1899 max 1847 min
Histogram: 1 1 1 1 2 5 3 0 1 1
Neighs:    0 ave 0 max 0 min
Histogram: 16 0 0 0 0 0 0 0 0 0
FullNghs:  18995 ave 20549 max 16897 min
Histogram: 1 0 1 0 3 3 2 4 1 1

Total # of neighbors = 303920
Ave neighs/atom = 303.92
Neighbor list builds = 1000
Dangerous builds not checked
Setting up Verlet run ...
  Unit style    : real
  Current step  : 21000
  Time step     : 1
Per MPI rank memory allocation (min/avg/max) = 4.577 | 4.578 | 4.579 Mbytes
Step Temp E_pair E_mol TotEng Press Volume Lx Ly Lz S/CPU 
   21000    297.31798   -10545.826            0    -9660.464    15045.928    776.53224    9.1915022    9.1915022    9.1915022            0 
   21100    299.84826   -10555.681            0   -9662.7844    8115.0347    776.81484    9.1926171    9.1926171    9.1926171    74.482531 
   21200    290.92542   -10529.027            0    -9662.701    1085.7269    777.49222    9.1952883    9.1952883    9.1952883     84.65205 
   21300     278.7461   -10491.015            0    -9660.957    10044.065    778.58591    9.1995979    9.1995979    9.1995979    58.107839 
   21400    297.73576   -10546.933            0    -9660.327    5507.4712     780.2776     9.206256     9.206256     9.206256    70.791825 
   21500    299.26317   -10547.847            0   -9656.6922    8907.1959    782.75168     9.215976     9.215976     9.215976    83.270583 
   21600    282.36355   -10489.714            0   -9648.8836   -14898.088    785.48918    9.2267071    9.2267071    9.2267071    58.363577 
   21700    291.45236   -10511.854            0   -9643.9588   -11732.512    787.58451    9.2349041    9.2349041    9.2349041    68.341727 
   21800    284.73348   -10484.807            0   -9636.9194   -9832.1874    789.17892    9.2411317    9.2411317    9.2411317    79.945765 
   21900     300.1029   -10524.714            0   -9631.0584   -10628.136     789.9588    9.2441747    9.2441747    9.2441747    69.527439 
   22000    299.92831   -10518.301            0   -9625.1661   -14533.272    789.96421    9.2441959    9.2441959    9.2441959    59.656355 
Loop time of 14.4004 on 16 procs for 1000 steps with 1000 atoms

Performance: 6.000 ns/day, 4.000 hours/ns, 69.443 timesteps/s
95.2% CPU use with 16 MPI tasks x no OpenMP threads

MPI task timing breakdown:
Section |  min time  |  avg time  |  max time  |%varavg| %total
---------------------------------------------------------------
Pair    | 2.2422     | 2.42       | 2.6667     |   6.6 | 16.80
Neigh   | 0.75843    | 0.80757    | 0.85832    |   2.5 |  5.61
Comm    | 0.73911    | 1.0319     | 1.2578     |  12.2 |  7.17
Output  | 6.6164     | 6.8354     | 10.071     |  32.0 | 47.47
Modify  | 0.056297   | 3.2972     | 3.5169     |  46.1 | 22.90
Other   |            | 0.008253   |            |       |  0.06

Nlocal:    62.5 ave 66 max 60 min
Histogram: 4 3 0 2 0 1 2 0 2 2
Nghost:    1850.25 ave 1865 max 1835 min
Histogram: 1 1 1 1 4 1 2 3 1 1
Neighs:    0 ave 0 max 0 min
Histogram: 16 0 0 0 0 0 0 0 0 0
FullNghs:  18684.5 ave 19930 max 17853 min
Histogram: 4 3 2 0 1 0 2 1 1 2

Total # of neighbors = 298952
Ave neighs/atom = 298.952
Neighbor list builds = 1000
Dangerous builds not checked
Setting up Verlet run ...
  Unit style    : real
  Current step  : 22000
  Time step     : 1
Per MPI rank memory allocation (min/avg/max) = 4.577 | 4.578 | 4.579 Mbytes
Step Temp E_pair E_mol TotEng Press Volume Lx Ly Lz S/CPU 
   22000    299.92831   -10518.301            0   -9625.1661   -14533.272    789.96421    9.2441959    9.2441959    9.2441959            0 
   22100    303.27942   -10524.469            0   -9621.3549   -3707.9116    789.30498    9.2416237    9.2416237    9.2416237    69.750427 
   22200    301.66504   -10515.213            0   -9616.9056    5155.4608    788.43401    9.2382232    9.2382232    9.2382232    69.236252 
   22300    303.45393   -10517.947            0   -9614.3126   -3516.7005    787.38549    9.2341261    9.2341261    9.2341261    66.784903 
   22400     294.9613   -10490.699            0   -9612.3549   -4237.7911    786.40353    9.2302859    9.2302859    9.2302859     77.75628 
   22500    314.29811    -10548.79            0   -9612.8642    83.314792    785.56494    9.2270038    9.2270038    9.2270038    65.377569 
   22600    298.92193   -10502.645            0   -9612.5067    14500.513    784.75628    9.2238366    9.2238366    9.2238366    58.675802 
   22700    291.31383   -10479.216            0   -9611.7333    12817.271    784.70222    9.2236248    9.2236248    9.2236248    72.402955 
   22800      302.154   -10511.386            0   -9611.6228   -1983.5158    784.95011    9.2245959    9.2245959    9.2245959    80.344241 
   22900    298.62538   -10499.352            0   -9610.0964    6539.5439    785.32428    9.2260614    9.2260614    9.2260614    58.133641 
   23000    290.65989   -10474.416            0   -9608.8802   -13635.034    785.65515    9.2273569    9.2273569    9.2273569    66.421808 
Loop time of 14.7468 on 16 procs for 1000 steps with 1000 atoms

Performance: 5.859 ns/day, 4.096 hours/ns, 67.811 timesteps/s
95.2% CPU use with 16 MPI tasks x no OpenMP threads

MPI task timing breakdown:
Section |  min time  |  avg time  |  max time  |%varavg| %total
---------------------------------------------------------------
Pair    | 2.1961     | 2.4111     | 2.687      |   7.0 | 16.35
Neigh   | 0.74784    | 0.80746    | 0.88456    |   3.6 |  5.48
Comm    | 0.6553     | 1.0035     | 1.2771     |  13.8 |  6.81
Output  | 7.0395     | 7.2568     | 10.465     |  30.8 | 49.21
Modify  | 0.046271   | 3.2597     | 3.4783     |  46.0 | 22.10
Other   |            | 0.008259   |            |       |  0.06

Nlocal:    62.5 ave 71 max 56 min
Histogram: 1 2 3 0 3 3 1 2 0 1
Nghost:    1843.19 ave 1871 max 1807 min
Histogram: 1 0 1 2 2 3 1 3 2 1
Neighs:    0 ave 0 max 0 min
Histogram: 16 0 0 0 0 0 0 0 0 0
FullNghs:  18772.4 ave 21636 max 17048 min
Histogram: 3 2 1 1 5 1 2 0 0 1

Total # of neighbors = 300358
Ave neighs/atom = 300.358
Neighbor list builds = 1000
Dangerous builds not checked
Setting up Verlet run ...
  Unit style    : real
  Current step  : 23000
  Time step     : 1
Per MPI rank memory allocation (min/avg/max) = 4.577 | 4.578 | 4.579 Mbytes
Step Temp E_pair E_mol TotEng Press Volume Lx Ly Lz S/CPU 
   23000    290.65989   -10474.416            0   -9608.8802   -13635.034    785.65515    9.2273569    9.2273569    9.2273569            0 
   23100    296.01133   -10489.417            0   -9607.9454   -9353.5399    785.38459    9.2262976    9.2262976    9.2262976    88.722246 
   23200    301.56111   -10503.996            0    -9605.998   -3924.4803    784.77988     9.223929     9.223929     9.223929    56.566937 
   23300     301.6294   -10502.242            0   -9604.0411   -10028.978    783.94515    9.2206576    9.2206576    9.2206576    70.376761 
   23400    290.35159   -10465.805            0   -9601.1878     21986.34    782.76974    9.2160469    9.2160469    9.2160469    69.598064 
   23500    294.86223   -10476.113            0   -9598.0639   -1140.0067    782.01441    9.2130816    9.2130816    9.2130816    61.824522 
   23600    286.05088   -10445.558            0   -9593.7476    3609.6764    781.29695    9.2102632    9.2102632    9.2102632    68.878792 
   23700     309.7592   -10511.057            0   -9588.6468    10171.565     780.6454    9.2077023    9.2077023    9.2077023    76.183466 
   23800    310.86039   -10504.247            0   -9578.5579     5683.647    780.21008    9.2059904    9.2059904    9.2059904    63.325118 
   23900    308.26581   -10485.576            0    -9567.613    5391.2728    779.85544    9.2045954    9.2045954    9.2045954    65.033178 
   24000    297.61315   -10439.858            0   -9553.6166    2176.3407     779.7144    9.2040404    9.2040404    9.2040404    76.806374 
Loop time of 14.5534 on 16 procs for 1000 steps with 1000 atoms

Performance: 5.937 ns/day, 4.043 hours/ns, 68.712 timesteps/s
95.2% CPU use with 16 MPI tasks x no OpenMP threads

MPI task timing breakdown:
Section |  min time  |  avg time  |  max time  |%varavg| %total
---------------------------------------------------------------
Pair    | 2.4028     | 2.488      | 2.6653     |   4.4 | 17.10
Neigh   | 0.79617    | 0.82072    | 0.87993    |   2.3 |  5.64
Comm    | 0.72132    | 0.9566     | 1.0663     |   9.1 |  6.57
Output  | 6.6853     | 6.91       | 10.23      |  32.6 | 47.48
Modify  | 0.047571   | 3.3698     | 3.5948     |  46.7 | 23.15
Other   |            | 0.008359   |            |       |  0.06

Nlocal:    62.5 ave 68 max 55 min
Histogram: 2 0 2 1 2 0 2 1 3 3
Nghost:    1867.25 ave 1878 max 1855 min
Histogram: 2 0 1 0 3 4 3 1 0 2
Neighs:    0 ave 0 max 0 min
Histogram: 16 0 0 0 0 0 0 0 0 0
FullNghs:  18929.8 ave 20601 max 16479 min
Histogram: 1 1 2 0 3 0 2 1 2 4

Total # of neighbors = 302876
Ave neighs/atom = 302.876
Neighbor list builds = 1000
Dangerous builds not checked
Setting up Verlet run ...
  Unit style    : real
  Current step  : 24000
  Time step     : 1
Per MPI rank memory allocation (min/avg/max) = 4.577 | 4.578 | 4.579 Mbytes
Step Temp E_pair E_mol TotEng Press Volume Lx Ly Lz S/CPU 
   24000    297.61315   -10439.858            0   -9553.6166    2176.3407     779.7144    9.2040404    9.2040404    9.2040404            0 
   24100    314.01771   -10477.141            0   -9542.0496    719.48531    779.89539    9.2047526    9.2047526    9.2047526    62.234436 
   24200    316.85832   -10474.428            0    -9530.878    9706.1224    780.45422    9.2069505    9.2069505    9.2069505    68.378819 
   24300    304.53428   -10428.985            0    -9522.134    3191.0321    781.53501    9.2111986    9.2111986    9.2111986    82.476982 
   24400    304.56729   -10423.922            0   -9516.9726    265.15262    782.77786    9.2160788    9.2160788    9.2160788    57.866049 
   24500    307.91981    -10430.85            0    -9513.917    5098.4968    784.15761    9.2214904    9.2214904    9.2214904     65.08243 
   24600    326.99641   -10489.695            0    -9515.956   -6814.0169    785.81434    9.2279801    9.2279801    9.2279801    71.873385 
   24700    304.22948   -10423.472            0   -9517.5287    4095.8887    787.39132    9.2341489    9.2341489    9.2341489    55.251484 
   24800    303.36267   -10425.538            0   -9522.1758     5719.762    788.87296    9.2399373    9.2399373    9.2399373    68.736513 
   24900    308.87448   -10448.631            0   -9528.8558    5809.4908     790.6748    9.2469668    9.2469668    9.2469668    73.399281 
   25000      294.275   -10410.169            0   -9533.8686   -12826.187    792.73796    9.2550027    9.2550027    9.2550027    74.404886 
Loop time of 14.9089 on 16 procs for 1000 steps with 1000 atoms

Performance: 5.795 ns/day, 4.141 hours/ns, 67.074 timesteps/s
95.2% CPU use with 16 MPI tasks x no OpenMP threads

MPI task timing breakdown:
Section |  min time  |  avg time  |  max time  |%varavg| %total
---------------------------------------------------------------
Pair    | 2.2997     | 2.4439     | 2.5866     |   5.2 | 16.39
Neigh   | 0.77205    | 0.81015    | 0.87245    |   2.7 |  5.43
Comm    | 0.78036    | 0.98687    | 1.1677     |  10.4 |  6.62
Output  | 6.7378     | 6.9815     | 10.586     |  35.2 | 46.83
Modify  | 0.075204   | 3.6782     | 3.9233     |  48.5 | 24.67
Other   |            | 0.008276   |            |       |  0.06

Nlocal:    62.5 ave 68 max 59 min
Histogram: 1 1 4 4 2 2 0 0 1 1
Nghost:    1842.56 ave 1869 max 1823 min
Histogram: 2 3 1 2 1 3 2 0 0 2
Neighs:    0 ave 0 max 0 min
Histogram: 16 0 0 0 0 0 0 0 0 0
FullNghs:  18589.9 ave 20236 max 17382 min
Histogram: 1 1 2 7 1 1 1 0 0 2

Total # of neighbors = 297438
Ave neighs/atom = 297.438
Neighbor list builds = 1000
Dangerous builds not checked
Setting up Verlet run ...
  Unit style    : real
  Current step  : 25000
  Time step     : 1
Per MPI rank memory allocation (min/avg/max) = 4.577 | 4.578 | 4.579 Mbytes
Step Temp E_pair E_mol TotEng Press Volume Lx Ly Lz S/CPU 
   25000      294.275   -10410.169            0   -9533.8686   -12826.187    792.73796    9.2550027    9.2550027    9.2550027            0 
   25100    315.70263   -10481.293            0   -9541.1845   -4747.9839    793.97488    9.2598138    9.2598138    9.2598138    65.686981 
   25200    309.23314   -10468.281            0   -9547.4371   -21076.658    794.08138    9.2602278    9.2602278    9.2602278     75.59516 
   25300    302.63051   -10453.812            0     -9552.63   -7588.9427    792.90721    9.2556613    9.2556613    9.2556613    68.661278 
   25400    302.15827   -10457.326            0   -9557.5507   -11491.664    790.83036    9.2475732    9.2475732    9.2475732     63.12727 
   25500    308.17419   -10479.919            0   -9562.2287   -3868.7859    788.01021    9.2365676    9.2365676    9.2365676    87.736843 
   25600    308.99299   -10485.702            0   -9565.5732   -4794.9393    784.94649    9.2245818    9.2245818    9.2245818    54.870439 
   25700    309.75701   -10489.742            0   -9567.3383   -7502.2262    781.47737    9.2109721    9.2109721    9.2109721    78.568191 
   25800    300.97632   -10465.973            0   -9569.7168   -9095.4458    777.91512    9.1969552    9.1969552    9.1969552    71.098839 
   25900    297.26796   -10456.934            0   -9571.7208    22383.422    774.52686    9.1835831    9.1835831    9.1835831    61.825179 
   26000    303.41458   -10478.637            0   -9575.1201    20602.435     772.5029    9.1755768    9.1755768    9.1755768    72.406807 
Loop time of 14.5258 on 16 procs for 1000 steps with 1000 atoms

Performance: 5.948 ns/day, 4.035 hours/ns, 68.843 timesteps/s
95.2% CPU use with 16 MPI tasks x no OpenMP threads

MPI task timing breakdown:
Section |  min time  |  avg time  |  max time  |%varavg| %total
---------------------------------------------------------------
Pair    | 2.1738     | 2.3623     | 2.5825     |   6.1 | 16.26
Neigh   | 0.74227    | 0.79293    | 0.85054    |   3.0 |  5.46
Comm    | 0.76363    | 1.046      | 1.273      |  11.6 |  7.20
Output  | 6.8346     | 7.0505     | 10.239     |  31.0 | 48.54
Modify  | 0.081387   | 3.266      | 3.4814     |  45.5 | 22.48
Other   |            | 0.00815    |            |       |  0.06

Nlocal:    62.5 ave 68 max 59 min
Histogram: 1 2 3 4 1 1 3 0 0 1
Nghost:    1865.19 ave 1883 max 1840 min
Histogram: 1 0 0 2 3 0 5 3 1 1
Neighs:    0 ave 0 max 0 min
Histogram: 16 0 0 0 0 0 0 0 0 0
FullNghs:  19120.1 ave 20811 max 17898 min
Histogram: 1 2 3 4 0 2 1 2 0 1

Total # of neighbors = 305922
Ave neighs/atom = 305.922
Neighbor list builds = 1000
Dangerous builds not checked
Setting up Verlet run ...
  Unit style    : real
  Current step  : 26000
  Time step     : 1
Per MPI rank memory allocation (min/avg/max) = 4.577 | 4.578 | 4.579 Mbytes
Step Temp E_pair E_mol TotEng Press Volume Lx Ly Lz S/CPU 
   26000    303.41458   -10478.637            0   -9575.1201    20602.435     772.5029    9.1755768    9.1755768    9.1755768            0 
   26100      308.971   -10498.007            0   -9577.9438    14500.026    772.03248    9.1737139    9.1737139    9.1737139     70.21881 
   26200     299.1792   -10473.741            0   -9582.8369    10864.974    773.24571    9.1785168    9.1785168    9.1785168    54.335193 
   26300    305.65932   -10496.891            0     -9586.69    8786.6499    775.68355    9.1881525    9.1881525    9.1881525    71.521063 
   26400    293.84505   -10466.464            0   -9591.4436    17633.226    779.29417    9.2023866    9.2023866    9.2023866    67.810703 
   26500    287.65922   -10451.296            0   -9594.6961   -7712.2419    783.96937    9.2207525    9.2207525    9.2207525     67.49475 
   26600    304.53848   -10504.326            0   -9597.4627   -14002.195    788.63132    9.2389937    9.2389937    9.2389937    79.114223 
   26700    291.45972   -10463.659            0   -9595.7414   -723.08221    792.56237    9.2543194    9.2543194    9.2543194    76.162676 
   26800    283.96797   -10439.953            0    -9594.345   -2887.1503    795.43763    9.2654968    9.2654968    9.2654968    64.392473 
   26900    282.53768   -10431.801            0    -9590.452   -12170.472     797.2204    9.2724137    9.2724137    9.2724137     66.22363 
   27000    295.53781   -10466.615            0   -9586.5539   -16300.506    797.82356    9.2747516    9.2747516    9.2747516    73.483137 
Loop time of 14.6199 on 16 procs for 1000 steps with 1000 atoms

Performance: 5.910 ns/day, 4.061 hours/ns, 68.400 timesteps/s
95.2% CPU use with 16 MPI tasks x no OpenMP threads

MPI task timing breakdown:
Section |  min time  |  avg time  |  max time  |%varavg| %total
---------------------------------------------------------------
Pair    | 2.3263     | 2.4703     | 2.652      |   5.6 | 16.90
Neigh   | 0.7789     | 0.81893    | 0.87456    |   3.0 |  5.60
Comm    | 0.76001    | 0.99187    | 1.17       |  11.4 |  6.78
Output  | 6.7734     | 6.9951     | 10.269     |  32.0 | 47.85
Modify  | 0.060015   | 3.3354     | 3.5572     |  46.3 | 22.81
Other   |            | 0.008302   |            |       |  0.06

Nlocal:    62.5 ave 68 max 58 min
Histogram: 1 0 4 1 3 1 3 1 0 2
Nghost:    1837.88 ave 1854 max 1813 min
Histogram: 1 0 3 0 0 1 3 4 3 1
Neighs:    0 ave 0 max 0 min
Histogram: 16 0 0 0 0 0 0 0 0 0
FullNghs:  18498 ave 20184 max 17143 min
Histogram: 1 2 2 2 3 1 3 0 1 1

Total # of neighbors = 295968
Ave neighs/atom = 295.968
Neighbor list builds = 1000
Dangerous builds not checked
Setting up Verlet run ...
  Unit style    : real
  Current step  : 27000
  Time step     : 1
Per MPI rank memory allocation (min/avg/max) = 4.577 | 4.578 | 4.579 Mbytes
Step Temp E_pair E_mol TotEng Press Volume Lx Ly Lz S/CPU 
   27000    295.53781   -10466.615            0   -9586.5539   -16300.506    797.82356    9.2747516    9.2747516    9.2747516            0 
   27100    312.57161   -10511.066            0   -9580.2811   -6540.1284    797.39253     9.273081     9.273081     9.273081    62.735386 
   27200    303.04177   -10472.049            0   -9569.6423   -5859.7814    796.08147     9.267996     9.267996     9.267996     65.03369 
   27300    304.70959    -10466.46            0   -9559.0871   -12271.052    794.23938    9.2608419    9.2608419    9.2608419    81.781462 
   27400    307.84653    -10464.78            0   -9548.0652   -11127.895    792.26435    9.2531593    9.2531593    9.2531593    72.571852 
   27500    301.91468   -10435.643            0   -9536.5929   -6676.5955    790.03187    9.2444598    9.2444598    9.2444598    64.444003 
   27600    300.77346   -10423.948            0    -9528.296   -11790.134    787.77374    9.2356436    9.2356436    9.2356436    77.586377 
   27700    307.75112    -10438.12            0   -9521.6901    3515.6862    785.39709    9.2263465    9.2263465    9.2263465    69.856226 
   27800     312.2817   -10446.993            0   -9517.0709    8860.0511    782.91907    9.2166329    9.2166329    9.2166329    67.627343 
   27900    324.09779   -10482.404            0   -9517.2956   -7625.5319    780.66561    9.2077817    9.2077817    9.2077817    75.439243 
   28000    327.04784   -10492.416            0   -9518.5232    3341.0567    778.60661    9.1996795    9.1996795    9.1996795    57.798971 
Loop time of 14.539 on 16 procs for 1000 steps with 1000 atoms

[...]
  621700    282.52426   -11434.958            0   -10593.649   -37617.998    757.30636    9.1150111    9.1150111    9.1150111     59.31486 
  621800    292.90243   -11459.309            0   -10587.096   -18454.347    755.16042    9.1063934    9.1063934    9.1063934    76.141755 
  621900    291.72838   -11448.271            0   -10579.554    2044.0091    751.56613    9.0919227    9.0919227    9.0919227    61.914368 
  622000    296.68857   -11453.624            0   -10570.136    17188.412    747.72097    9.0763908    9.0763908    9.0763908    52.007583 
  622100    299.19189   -11451.566            0   -10560.623    24249.595    744.68796    9.0641019    9.0641019    9.0641019      67.6672 
  622200     305.2157    -11463.86            0    -10554.98    27099.741    743.10134      9.05766      9.05766      9.05766    73.399688 
  622300    298.46155   -11437.288            0   -10548.521    25337.612    743.53356    9.0594158    9.0594158    9.0594158    54.601399 
  622400    315.69044   -11486.666            0   -10546.593    19198.318    745.79356    9.0685853    9.0685853    9.0685853    69.636173 
  622500    308.87258   -11463.865            0   -10544.096    6798.6503     749.2058    9.0823948    9.0823948    9.0823948    69.521238 
  622600    303.58513   -11446.974            0    -10542.95   -15701.543    752.84777    9.0970879    9.0970879    9.0970879    46.153131 
  622700    300.41552   -11435.527            0   -10540.941    -25158.34    755.66095    9.1084049    9.1084049    9.1084049    66.651629 
  622800    309.81064   -11463.479            0   -10540.916    -31879.63     756.8841    9.1133167    9.1133167    9.1133167    61.848635 
  622900    301.34667   -11438.379            0    -10541.02   -22983.549    756.23334    9.1107041    9.1107041    9.1107041    70.382312 
  623000    297.51708   -11428.159            0   -10542.204   -15976.479    754.00406    9.1017429    9.1017429    9.1017429    62.095211 
  623100    305.03592   -11452.785            0   -10544.441   -7958.1991     750.9028    9.0892471    9.0892471    9.0892471    53.969324 
  623200    296.13071   -11427.057            0   -10545.231    13610.044    747.81945    9.0767893    9.0767893    9.0767893    63.963754 
  623300    312.56812   -11479.159            0   -10548.385    14573.016    745.69449    9.0681837    9.0681837    9.0681837    57.076104 
  623400    300.72301   -11445.741            0   -10550.239    25269.444    745.01225    9.0654174    9.0654174    9.0654174    72.651252 
  623500    307.62087   -11469.769            0   -10553.726    22156.335    745.89248    9.0689863    9.0689863    9.0689863    74.328106 
  623600    298.70533   -11446.493            0       -10557    5186.0879    748.10625    9.0779495    9.0779495    9.0779495    57.565406 
  623700    300.71606   -11455.421            0    -10559.94   -4169.9401    750.87952    9.0891531    9.0891531    9.0891531     74.14985 
  623800    301.01826   -11457.532            0   -10561.151   -16152.097    753.43199    9.0994404    9.0994404    9.0994404    84.243503 
  623900      301.865   -11460.276            0   -10561.374   -19199.905    754.89721    9.1053352    9.1053352    9.1053352     61.82597 
  624000    299.41056    -11453.58            0   -10561.986    -24735.42    754.98692    9.1056959    9.1056959    9.1056959    78.531603 
  624100    301.45558   -11460.224            0   -10562.541   -24516.991    753.69831    9.1005124    9.1005124    9.1005124    69.808901 
  624200    297.80318   -11449.281            0   -10562.474   -7367.8205    751.44299    9.0914261    9.0914261    9.0914261    61.140471 
  624300    289.66118   -11424.598            0   -10562.037    1682.3834    748.94543    9.0813426    9.0813426    9.0813426    76.305169 
  624400    297.95465   -11449.789            0   -10562.531    10607.443    746.91383    9.0731237    9.0731237    9.0731237    69.036968 
  624500    297.47395   -11448.172            0   -10562.346      22626.1    745.80302    9.0686237    9.0686237    9.0686237    76.233122 
  624600    311.22448   -11492.339            0   -10565.566    19975.945     745.8979    9.0690082    9.0690082    9.0690082    52.746465 
  624700    307.18755   -11481.151            0   -10566.399    7152.6971    747.19937    9.0742798    9.0742798    9.0742798    56.119084 
  624800     296.0493    -11449.93            0   -10568.346    2569.5282    749.19369    9.0823459    9.0823459    9.0823459    79.107058 
  624900    296.55037   -11454.397            0    -10571.32   -755.90508    751.25802    9.0906801    9.0906801    9.0906801    68.425756 
  625000    291.16555   -11440.554            0   -10573.513   -12988.727     752.9574    9.0975294    9.0975294    9.0975294    52.635946 
  625100    304.27691   -11483.898            0   -10577.813   -14467.371     753.6598    9.1003574    9.1003574    9.1003574    80.627485 
  625200    310.60874    -11508.82            0    -10583.88   -20897.288    753.32747    9.0990196    9.0990196    9.0990196    61.037879 
  625300    295.75668   -11469.799            0   -10589.086   -12056.191    751.97702    9.0935792    9.0935792    9.0935792    69.579562 
  625400    296.89517   -11479.085            0   -10594.982   -7869.2546    749.96381    9.0854568    9.0854568    9.0854568    84.910432 
  625500    296.10308   -11483.116            0   -10601.372    5456.4103    747.73812    9.0764602    9.0764602    9.0764602    57.870143 
  625600    308.49936   -11526.018            0    -10607.36    13715.613    745.91471    9.0690763    9.0690763    9.0690763    68.534557 
  625700    290.74994   -11478.497            0   -10612.693    20478.011    745.04472    9.0655491    9.0655491    9.0655491    59.973007 
  625800    292.62628   -11490.595            0   -10619.204    19839.239     745.3246    9.0666841    9.0666841    9.0666841    55.611872 
  625900    288.22392   -11484.284            0   -10626.002    9890.2753    746.72432    9.0723563    9.0723563    9.0723563    64.352666 
  626000    292.98875   -11504.897            0   -10632.426    3298.5208       748.76     9.080593     9.080593     9.080593    57.688877 
  626100    284.68667    -11483.05            0   -10635.302   -6869.2134    750.87307    9.0891271    9.0891271    9.0891271    52.481374 
  626200     290.8429   -11503.964            0   -10637.883   -11885.898    752.40009    9.0952843    9.0952843    9.0952843    55.446139 
  626300    294.04418   -11513.796            0   -10638.182   -15950.522    752.85341    9.0971106    9.0971106    9.0971106    64.279652 
  626400    289.34446   -11495.829            0    -10634.21   -9207.8698    752.25687    9.0947072    9.0947072    9.0947072    62.950457 
  626500    294.84499   -11505.193            0   -10627.195   -11402.297    750.80894    9.0888683    9.0888683    9.0888683    49.840524 
  626600    302.87029   -11519.565            0   -10617.669    3501.9399    748.85197    9.0809648    9.0809648    9.0809648    62.040974 
  626700     299.8231   -11496.476            0   -10603.654    14400.793    747.10256    9.0738879    9.0738879    9.0738879    71.967743 
  626800    299.00636   -11479.013            0   -10588.623    17777.451    746.04208    9.0695925    9.0695925    9.0695925    55.150512 
  626900    314.06087   -11511.946            0   -10576.726     11196.74    746.03597    9.0695677    9.0695677    9.0695677    71.185292 
  627000    306.18426   -11478.841            0   -10567.077    13601.117    747.12807    9.0739911    9.0739911    9.0739911    57.947734 
  627100    302.14539   -11460.158            0   -10560.421    961.96526     749.1062    9.0819923    9.0819923    9.0819923    58.309591 
  627200     293.1799   -11428.206            0   -10555.166   -6275.8383    751.34716    9.0910396    9.0910396    9.0910396    69.671198 
  627300    291.05884    -11417.91            0   -10551.187   -14733.352     753.2648    9.0987673    9.0987673    9.0987673    54.666569 
  627400    305.32089   -11458.602            0   -10549.408   -9119.9246    754.31946    9.1030118    9.1030118    9.1030118     68.69452 
  627500    309.61352   -11470.856            0    -10548.88   -16119.123    754.36981    9.1032143    9.1032143    9.1032143    60.019901 
  627600    306.84073   -11459.592            0   -10545.872   -9548.3707    753.40486    9.0993312    9.0993312    9.0993312    64.354461 
  627700    300.10156   -11438.032            0   -10544.381   -4510.3857     751.8481    9.0930596    9.0930596    9.0930596    66.688934 
  627800     306.5648   -11457.284            0   -10544.386    293.98856     749.9841    9.0855387    9.0855387    9.0855387     56.90178 
  627900    299.74928   -11436.285            0   -10543.683    11478.376     748.2836    9.0786668    9.0786668    9.0786668    54.136718 
  628000    311.40602   -11472.496            0   -10545.182    15740.604    747.34624    9.0748743    9.0748743    9.0748743    62.120301 
  628100    298.92101   -11436.086            0    -10545.95    15822.964    747.45506    9.0753147    9.0753147    9.0753147    53.078208 
  628200    305.04346   -11458.962            0   -10550.594    13158.794    748.48992    9.0795011    9.0795011    9.0795011    74.064004 
  628300    307.36547   -11471.241            0   -10555.959   -709.70158    750.01378    9.0856586    9.0856586    9.0856586    62.368822 
  628400    299.89988   -11456.821            0    -10563.77   -8392.5566    751.43619    9.0913987    9.0913987    9.0913987    68.133534 
  628500    299.78338   -11465.443            0   -10572.739   -4971.2222    752.31618    9.0949462    9.0949462    9.0949462    82.299388 
  628600    291.93633   -11453.313            0   -10583.976    -7115.599    752.53836    9.0958415    9.0958415    9.0958415    70.972683 
  628700    300.09275   -11491.014            0   -10597.389   -15228.485    752.01442      9.09373      9.09373      9.09373    66.507467 
  628800    288.97323   -11469.098            0   -10608.585   -5822.5967    750.68849    9.0883823    9.0883823    9.0883823    71.668882 
  628900    290.60584   -11483.857            0   -10618.483    -2226.014    748.90645     9.081185     9.081185     9.081185    40.243316 
  629000    297.40371    -11510.86            0   -10625.242    7378.6786     747.0358    9.0736176    9.0736176    9.0736176    76.165605 
  629100    280.91678   -11464.015            0   -10627.493    14196.243    745.58732    9.0677493    9.0677493    9.0677493    49.705603 
  629200    295.67846   -11511.437            0   -10630.958    14686.787    745.01743    9.0654384    9.0654384    9.0654384    74.732361 
  629300    294.69753   -11508.877            0   -10631.318    9531.1206     745.5745    9.0676973    9.0676973    9.0676973    84.238282 
  629400    294.12603   -11504.764            0   -10628.906    10124.297     747.1019    9.0738852    9.0738852    9.0738852    51.758974 
  629500    303.83743   -11531.114            0   -10626.338    80.855202    749.22685    9.0824799    9.0824799    9.0824799    65.789031 
  629600    292.00828   -11489.866            0   -10620.315   -11505.497    751.25345    9.0906616    9.0906616    9.0906616    79.825221 
  629700    291.50581   -11481.177            0   -10613.122   -12354.355    752.57824    9.0960021    9.0960021    9.0960021    59.639739 
  629800    285.10987   -11453.757            0   -10604.749    -13216.77     752.8274    9.0970058    9.0970058    9.0970058    73.339719 
  629900    295.40549   -11477.018            0   -10597.351   -9231.2884     752.2125    9.0945284    9.0945284    9.0945284    80.257204 
  630000    289.39987   -11450.961            0   -10589.177   -4136.3278    750.96505    9.0894982    9.0894982    9.0894982    59.495631 
  630100    306.23544   -11496.405            0   -10584.488   -3283.9014    749.49954    9.0835816    9.0835816    9.0835816    65.311582 
  630200    289.75173   -11440.822            0   -10577.991    12965.129    748.18216    9.0782565    9.0782565    9.0782565    75.994485 
  630300    295.27053   -11455.417            0   -10576.152    5430.9607    747.43536     9.075235     9.075235     9.075235    57.202119 
  630400    301.67255   -11472.527            0   -10574.198    11556.478     747.3304    9.0748102    9.0748102    9.0748102     77.72098 
  630500    292.19758   -11443.673            0   -10573.558    3640.8762    748.06432    9.0777799    9.0777799    9.0777799    57.750749 
  630600    303.68731   -11476.096            0   -10571.767     9325.411    749.37512     9.083079     9.083079     9.083079    66.875643 
  630700    314.91793   -11509.239            0   -10571.467   -9285.4412    750.80439      9.08885      9.08885      9.08885    77.357973 
  630800    294.19238   -11445.492            0   -10569.437    5412.4763    751.79505    9.0928457    9.0928457    9.0928457    60.176594 
  630900    291.78699   -11435.772            0    -10566.88   -2952.1589    752.45654    9.0955118    9.0955118    9.0955118    66.682739 
  631000    303.51693   -11469.528            0   -10565.707   -8671.9185     752.5391    9.0958444    9.0958444    9.0958444    61.821872 
  631100    303.25974   -11466.947            0   -10563.891   -15105.197     751.9876    9.0936219    9.0936219    9.0936219    69.363117 
  631200    303.45641   -11465.466            0   -10561.825   -5171.4402    750.96963    9.0895167    9.0895167    9.0895167     67.27104 
  631300    305.07305   -11467.973            0   -10559.517    2285.3929    749.77228    9.0846833    9.0846833    9.0846833    64.835868 
  631400    300.79162   -11453.915            0   -10558.209    10001.318    748.71505    9.0804113    9.0804113    9.0804113    71.569115 
  631500    303.71875   -11460.402            0   -10555.979    9732.0635     748.1584    9.0781604    9.0781604    9.0781604    74.895253 
  631600    305.65313   -11465.187            0   -10555.005    9353.5315    748.11195    9.0779725    9.0779725    9.0779725    65.664948 
  631700    306.56635   -11467.084            0   -10554.182    11126.246    748.51305    9.0795946    9.0795946    9.0795946    70.855378 
  631800    293.24331   -11425.088            0   -10551.859    9450.8059    749.30105    9.0827797    9.0827797    9.0827797    69.981176 
  631900    299.36511   -11445.082            0   -10553.624   -1606.6898    750.27422    9.0867101    9.0867101    9.0867101    51.397614 
  632000    294.94583   -11432.406            0   -10554.108   -10424.042    751.15596    9.0902684    9.0902684    9.0902684    69.415345 
  632100    309.10036   -11475.846            0   -10555.398   -7564.5209    751.66692    9.0923291    9.0923291    9.0923291    62.144683 
  632200    292.43765   -11425.853            0   -10555.023   -2533.5982    751.78095    9.0927888    9.0927888    9.0927888    66.935198 
  632300    303.21434   -11460.044            0   -10557.123   -1846.7253    751.54266     9.091828     9.091828     9.091828     53.84241 
  632400    300.31741   -11453.077            0   -10558.783   -8494.6522    750.94287    9.0894087    9.0894087    9.0894087    58.601973 
  632500    308.93413   -11482.019            0   -10562.066   -11792.647    750.11455    9.0860655    9.0860655    9.0860655     71.81254 
  632600    306.30184   -11477.181            0   -10565.067    4296.9478    749.35038     9.082979     9.082979     9.082979    61.694267 
  632700    304.29515   -11475.885            0   -10569.746    4429.2739    748.91207    9.0812077    9.0812077    9.0812077     72.29829 
  632800    293.20136   -11446.729            0   -10573.625    7176.9708    748.89383     9.081134     9.081134     9.081134     73.29675 
  632900    292.11248   -11449.358            0   -10579.496    4024.4388    749.17818    9.0822832    9.0822832    9.0822832    50.038748 
  633000    299.66413   -11478.916            0   -10586.568   -6020.7849    749.53056     9.083707     9.083707     9.083707    67.893779 
  633100    293.99368   -11466.863            0     -10591.4   -243.10286    749.83048    9.0849184    9.0849184    9.0849184    80.233086 
  633200    293.81413   -11472.017            0   -10597.088    3698.2485    750.05919     9.085842     9.085842     9.085842    57.185068 
  633300    285.82804   -11452.342            0   -10601.195    788.30305    750.24806    9.0866045    9.0866045    9.0866045    65.647733 
  633400     296.9152   -11489.743            0    -10605.58   -3715.6387    750.26856    9.0866873    9.0866873    9.0866873     59.79579 
  633500    302.59677   -11511.213            0   -10610.131   -53.079899    750.15807    9.0862412    9.0862412    9.0862412    57.683022 
  633600    299.24575   -11503.811            0   -10612.708   -8258.0959    749.96546    9.0854635    9.0854635    9.0854635     74.27544 
  633700    298.05826   -11501.612            0   -10614.045   -6120.3366    749.58827    9.0839401    9.0839401    9.0839401     63.18248 
  633800    289.04304   -11473.497            0   -10612.776    163.76045    749.25347    9.0825874    9.0825874    9.0825874    70.756753 
  633900    297.18018   -11497.114            0   -10612.162   -11327.624     748.8855    9.0811003    9.0811003    9.0811003    70.803156 
  634000    295.10161   -11486.826            0   -10608.064   -2774.2077    748.64548      9.08013      9.08013      9.08013    57.472591 
  634100    292.62478   -11472.749            0   -10601.362   -488.02963    748.67992    9.0802693    9.0802693    9.0802693    71.458865 
  634200    301.95243   -11489.907            0   -10590.744    2764.0264    749.04117    9.0817295    9.0817295    9.0817295    61.283571 
  634300    292.27312   -11447.649            0   -10577.309    3428.7214    749.61549      9.08405      9.08405      9.08405    63.102868 
  634400    307.37392   -11480.436            0   -10565.129   -666.31742    750.31419    9.0868715    9.0868715    9.0868715    74.322627 
  634500    304.71542   -11460.038            0   -10552.647    1151.9548    750.92258    9.0893269    9.0893269    9.0893269    51.725216 
  634600    303.57626   -11445.537            0   -10541.538   -5745.3941    751.45621    9.0914794    9.0914794    9.0914794    58.593194 
  634700    295.39769   -11413.715            0   -10534.071    -1899.494    751.81412    9.0929225    9.0929225    9.0929225     68.19336 
  634800    304.21335   -11434.993            0   -10529.097   -6682.3656    751.95838    9.0935041    9.0935041    9.0935041      63.5568 
  634900    303.48267   -11430.298            0   -10526.579    1270.7238    751.69126    9.0924272    9.0924272    9.0924272    63.686604 
  635000    301.48564   -11423.663            0    -10525.89   -877.19222    751.03381    9.0897756    9.0897756    9.0897756    60.108391 
Loop time of 1557.73 on 16 procs for 100000 steps with 1000 atoms

Performance: 5.547 ns/day, 4.327 hours/ns, 64.196 timesteps/s
95.1% CPU use with 16 MPI tasks x no OpenMP threads

MPI task timing breakdown:
Section |  min time  |  avg time  |  max time  |%varavg| %total
---------------------------------------------------------------
Pair    | 231.33     | 235.8      | 251.85     |  32.1 | 15.14
Neigh   | 80.643     | 82.41      | 87.135     |  18.5 |  5.29
Comm    | 73.272     | 94.031     | 99.88      |  66.3 |  6.04
Output  | 745.98     | 770.86     | 1138.8     | 342.2 | 49.49
Modify  | 5.7651     | 373.79     | 398.68     | 491.5 | 24.00
Other   |            | 0.839      |            |       |  0.05

Nlocal:    62.5 ave 68 max 57 min
Histogram: 2 1 1 1 2 4 1 2 0 2
Nghost:    1920.19 ave 1940 max 1910 min
Histogram: 3 3 3 2 1 0 2 0 0 2
Neighs:    0 ave 0 max 0 min
Histogram: 16 0 0 0 0 0 0 0 0 0
FullNghs:  19590.9 ave 21314 max 17780 min
Histogram: 1 2 1 1 2 4 1 2 0 2

Total # of neighbors = 313454
Ave neighs/atom = 313.454
Neighbor list builds = 100000
Dangerous builds not checked
Total wall time: 2:41:50
