LAMMPS (16 Mar 2018)
Reading data file ...
  orthogonal box = (-4.69409 -4.69409 -4.69409) to (4.69409 4.69409 4.69409)
  2 by 2 by 4 MPI processor grid
  reading atoms ...
  1000 atoms
Reading potential file /home/fs01/ajm529/lammps-16Mar18/potentials/sw_potentials/AG/eps2.23.sw with DATE: 2008-01-29
Neighbor list info ...
  update every 1 steps, delay 0 steps, check no
  max neighbors/atom: 2000, page size: 100000
  master list distance cutoff = 3.836
  ghost atom cutoff = 3.836
  binsize = 1.918, bins = 5 5 5
  1 neighbor lists, perpetual/occasional/extra = 1 0 0
  (1) pair sw, perpetual
      attributes: full, newton on
      pair build: full/bin/atomonly
      stencil: full/bin/3d
      bin: standard
Setting up Verlet run ...
  Unit style    : real
  Current step  : 0
  Time step     : 1
Per MPI rank memory allocation (min/avg/max) = 3.518 | 3.52 | 3.522 Mbytes
Step Temp E_pair E_mol TotEng Press Volume Lx Ly Lz S/CPU 
       0          300   -10180.499            0   -9287.1499   -12842.168    827.45304    9.3881737    9.3881737    9.3881737            0 
     100    330.39581   -10274.995            0   -9291.1323   -19809.438    826.12952    9.3831656    9.3831656    9.3831656    22.829753 
     200    320.78375   -10255.696            0   -9300.4563   -27134.785    822.37657    9.3689354    9.3689354    9.3689354    21.705969 
     300    319.48947   -10268.424            0   -9317.0388   -22283.906    816.79076     9.347675     9.347675     9.347675    24.540047 
     400    317.63919   -10282.511            0   -9336.6355    -23467.32     809.7073    9.3205746    9.3205746    9.3205746    20.551369 
     500    313.98791   -10290.063            0    -9355.061    -10232.69    801.94154    9.2906815    9.2906815    9.2906815    21.875019 
     600    316.83175   -10313.712            0   -9370.2411   -883.13669    794.08578    9.2602449    9.2602449    9.2602449    24.068541 
     700    329.53147   -10365.004            0   -9383.7158    10678.014    787.41752    9.2342513    9.2342513    9.2342513    22.132916 
     800    324.95046   -10363.531            0   -9395.8837     27573.14     782.6534    9.2155903    9.2155903    9.2155903    23.478648 
     900    328.76576   -10390.085            0   -9411.0767    17013.228    780.02295    9.2052544    9.2052544    9.2052544    23.625337 
    1000    311.64343   -10356.331            0   -9428.3097    26713.153    779.31766    9.2024791    9.2024791    9.2024791     25.22843 
Loop time of 43.6282 on 16 procs for 1000 steps with 1000 atoms

Performance: 1.980 ns/day, 12.119 hours/ns, 22.921 timesteps/s
94.0% CPU use with 16 MPI tasks x no OpenMP threads

MPI task timing breakdown:
Section |  min time  |  avg time  |  max time  |%varavg| %total
---------------------------------------------------------------
Pair    | 1.5831     | 1.6602     | 1.7232     |   3.5 |  3.81
Neigh   | 0.5845     | 0.60273    | 0.64174    |   1.7 |  1.38
Comm    | 0.43436    | 0.5125     | 0.6076     |   7.6 |  1.17
Output  | 27.359     | 28.204     | 40.824     |  61.4 | 64.65
Modify  | 0.021036   | 12.642     | 13.487     |  91.7 | 28.98
Other   |            | 0.006924   |            |       |  0.02

Nlocal:    62.5 ave 68 max 58 min
Histogram: 2 1 1 3 1 1 2 3 1 1
Nghost:    1860.88 ave 1881 max 1829 min
Histogram: 1 0 0 3 1 3 0 4 1 3
Neighs:    0 ave 0 max 0 min
Histogram: 16 0 0 0 0 0 0 0 0 0
FullNghs:  18939.9 ave 20553 max 17381 min
Histogram: 3 0 2 2 1 2 2 0 3 1

Total # of neighbors = 303038
Ave neighs/atom = 303.038
Neighbor list builds = 1000
Dangerous builds not checked
Setting up Verlet run ...
  Unit style    : real
  Current step  : 1000
  Time step     : 1
Per MPI rank memory allocation (min/avg/max) = 3.521 | 4.412 | 4.581 Mbytes
Step Temp E_pair E_mol TotEng Press Volume Lx Ly Lz S/CPU 
    1000    311.64343   -10356.331            0   -9428.3097    26713.153    779.31766    9.2024791    9.2024791    9.2024791            0 
    1100    317.40853   -10393.132            0    -9447.944    11362.907    780.69153    9.2078836    9.2078836    9.2078836    22.866725 
    1200    322.22281   -10425.022            0   -9465.4975    13658.258    783.46194    9.2187627    9.2187627    9.2187627    24.634745 
    1300    314.33811     -10419.5            0   -9483.4544   -8900.4858    786.68992    9.2314062    9.2314062    9.2314062    24.826781 
    1400    307.39947   -10414.215            0   -9498.8317   -7604.0124    789.39601    9.2419789    9.2419789    9.2419789    24.160678 
    1500    313.05053   -10446.237            0   -9514.0259   -9790.6696    791.71523     9.251021     9.251021     9.251021      25.3491 
    1600    309.21971   -10449.418            0   -9528.6145   -10836.618    793.21832    9.2568717    9.2568717    9.2568717    23.791574 
    1700    305.74077   -10452.113            0   -9541.6693    795.80629    793.48015    9.2578901    9.2578901    9.2578901    22.018544 
    1800     311.0465    -10481.23            0   -9554.9863    7741.2102    793.13296    9.2565397    9.2565397    9.2565397    25.214262 
    1900    294.09457   -10440.652            0   -9564.8887   -6273.8306     792.6754    9.2547593    9.2547593    9.2547593    25.317858 
    2000    293.25948   -10448.384            0   -9575.1072   -1717.9353    791.65469    9.2507852    9.2507852    9.2507852    23.069109 
Loop time of 41.5397 on 16 procs for 1000 steps with 1000 atoms

Performance: 2.080 ns/day, 11.539 hours/ns, 24.073 timesteps/s
94.1% CPU use with 16 MPI tasks x no OpenMP threads

MPI task timing breakdown:
Section |  min time  |  avg time  |  max time  |%varavg| %total
---------------------------------------------------------------
Pair    | 1.5755     | 1.7138     | 1.8693     |   5.0 |  4.13
Neigh   | 0.57902    | 0.60726    | 0.6783     |   2.7 |  1.46
Comm    | 0.34407    | 0.57005    | 0.73619    |  11.2 |  1.37
Output  | 26.042     | 26.832     | 38.62      |  58.8 | 64.59
Modify  | 0.0209     | 11.81      | 12.6       |  88.6 | 28.43
Other   |            | 0.006872   |            |       |  0.02

Nlocal:    62.5 ave 69 max 57 min
Histogram: 1 2 1 1 3 5 1 1 0 1
Nghost:    1851.69 ave 1872 max 1837 min
Histogram: 2 1 3 2 2 0 4 1 0 1
Neighs:    0 ave 0 max 0 min
Histogram: 16 0 0 0 0 0 0 0 0 0
FullNghs:  18655.4 ave 20645 max 16942 min
Histogram: 1 2 1 1 4 3 2 1 0 1

Total # of neighbors = 298486
Ave neighs/atom = 298.486
Neighbor list builds = 1000
Dangerous builds not checked
Setting up Verlet run ...
  Unit style    : real
  Current step  : 2000
  Time step     : 1
Per MPI rank memory allocation (min/avg/max) = 4.578 | 4.579 | 4.581 Mbytes
Step Temp E_pair E_mol TotEng Press Volume Lx Ly Lz S/CPU 
    2000    293.25948   -10448.384            0   -9575.1072   -1717.9353    791.65469    9.2507852    9.2507852    9.2507852            0 
    2100    290.54579   -10449.134            0   -9583.9384    9380.7088    790.32326    9.2455962    9.2455962    9.2455962    22.561602 
    2200     294.0612   -10467.839            0   -9592.1754    11074.581     789.0269    9.2405383    9.2405383    9.2405383    25.822001 
    2300    298.90785   -10489.942            0    -9599.845   -596.55889    787.92278     9.236226     9.236226     9.236226    24.722899 
    2400    295.34736    -10486.52            0   -9607.0263   -5162.5521    786.60917    9.2310904    9.2310904    9.2310904    24.877486 
    2500      301.007   -10511.393            0   -9615.0456    102.11153    785.40249    9.2263677    9.2263677    9.2263677    25.733101 
    2600    301.82561   -10521.806            0   -9623.0212    8830.9743    784.37616     9.222347     9.222347     9.222347    23.842128 
    2700    291.08209   -10496.868            0   -9630.0754    17667.329    783.69487    9.2196762    9.2196762    9.2196762    25.544756 
    2800    294.28105    -10513.86            0   -9637.5413    1141.2302    783.57753     9.219216     9.219216     9.219216    22.465755 
    2900    301.97147   -10543.114            0   -9643.8949   -3369.3062    784.07284    9.2211582    9.2211582    9.2211582    25.486176 
    3000    289.59719   -10511.735            0   -9649.3636   -10097.331    784.80427    9.2240246    9.2240246    9.2240246    22.926006 
Loop time of 41.1013 on 16 procs for 1000 steps with 1000 atoms

Performance: 2.102 ns/day, 11.417 hours/ns, 24.330 timesteps/s
94.1% CPU use with 16 MPI tasks x no OpenMP threads

MPI task timing breakdown:
Section |  min time  |  avg time  |  max time  |%varavg| %total
---------------------------------------------------------------
Pair    | 1.6278     | 1.7201     | 1.8549     |   3.6 |  4.19
Neigh   | 0.58883    | 0.607      | 0.66865    |   2.4 |  1.48
Comm    | 0.33845    | 0.53431    | 0.64437    |   8.5 |  1.30
Output  | 24.797     | 25.639     | 38.211     |  64.1 | 62.38
Modify  | 0.020645   | 12.594     | 13.436     |  91.5 | 30.64
Other   |            | 0.006882   |            |       |  0.02

Nlocal:    62.5 ave 67 max 59 min
Histogram: 1 3 0 6 0 1 2 1 1 1
Nghost:    1863.44 ave 1879 max 1842 min
Histogram: 2 1 1 1 1 1 1 4 1 3
Neighs:    0 ave 0 max 0 min
Histogram: 16 0 0 0 0 0 0 0 0 0
FullNghs:  18784.1 ave 20398 max 17550 min
Histogram: 3 0 1 5 2 1 2 0 1 1

Total # of neighbors = 300546
Ave neighs/atom = 300.546
Neighbor list builds = 1000
Dangerous builds not checked
Setting up Verlet run ...
  Unit style    : real
  Current step  : 3000
  Time step     : 1
Per MPI rank memory allocation (min/avg/max) = 4.578 | 4.579 | 4.581 Mbytes
Step Temp E_pair E_mol TotEng Press Volume Lx Ly Lz S/CPU 
    3000    289.59719   -10511.735            0   -9649.3636   -10097.331    784.80427    9.2240246    9.2240246    9.2240246            0 
    3100    292.25796   -10522.735            0   -9652.4408    3533.3435     785.2586    9.2258042    9.2258042    9.2258042    21.448594 
    3200    302.15045   -10554.725            0   -9654.9725   -678.64315     785.6039    9.2271563    9.2271563    9.2271563    26.226434 
    3300    297.55174   -10541.414            0   -9655.3556    18531.578    785.69501     9.227513     9.227513     9.227513    25.009972 
    3400    290.07443   -10516.842            0   -9653.0497   -490.45601    785.78947    9.2278828    9.2278828    9.2278828    24.343103 
    3500    286.08881   -10500.479            0   -9648.5549    -16851.07    785.44183    9.2265217    9.2265217    9.2265217    21.743989 
    3600    302.04977   -10542.414            0    -9642.961     8862.988     784.8035    9.2240216    9.2240216    9.2240216    25.409181 
    3700    289.53008   -10497.156            0   -9634.9851   -18764.737    783.95026    9.2206776    9.2206776    9.2206776    26.735391 
    3800    285.91475    -10478.29            0   -9626.8849   -3448.7195    782.86321    9.2164137    9.2164137    9.2164137    24.325802 
    3900    303.65648   -10523.721            0    -9619.484     9197.879    781.90586    9.2126553    9.2126553    9.2126553    25.117558 
    4000    302.93792   -10511.657            0   -9609.5601    11788.228    781.51547    9.2111218    9.2111218    9.2111218    27.543144 
Loop time of 40.5793 on 16 procs for 1000 steps with 1000 atoms

Performance: 2.129 ns/day, 11.272 hours/ns, 24.643 timesteps/s
94.1% CPU use with 16 MPI tasks x no OpenMP threads

MPI task timing breakdown:
Section |  min time  |  avg time  |  max time  |%varavg| %total
---------------------------------------------------------------
Pair    | 1.5896     | 1.727      | 1.8172     |   4.0 |  4.26
Neigh   | 0.57945    | 0.60796    | 0.65767    |   2.0 |  1.50
Comm    | 0.37302    | 0.51252    | 0.67832    |   8.9 |  1.26
Output  | 24.976     | 25.775     | 37.703     |  60.7 | 63.52
Modify  | 0.020831   | 11.95      | 12.749     |  89.1 | 29.45
Other   |            | 0.006879   |            |       |  0.02

Nlocal:    62.5 ave 67 max 58 min
Histogram: 1 0 4 2 1 3 0 2 2 1
Nghost:    1855.44 ave 1867 max 1837 min
Histogram: 1 1 2 0 0 2 0 5 2 3
Neighs:    0 ave 0 max 0 min
Histogram: 16 0 0 0 0 0 0 0 0 0
FullNghs:  18895.6 ave 20450 max 17489 min
Histogram: 1 3 1 3 0 3 0 2 2 1

Total # of neighbors = 302330
Ave neighs/atom = 302.33
Neighbor list builds = 1000
Dangerous builds not checked
Setting up Verlet run ...
  Unit style    : real
  Current step  : 4000
  Time step     : 1
Per MPI rank memory allocation (min/avg/max) = 4.578 | 4.579 | 4.581 Mbytes
Step Temp E_pair E_mol TotEng Press Volume Lx Ly Lz S/CPU 
    4000    302.93792   -10511.657            0   -9609.5601    11788.228    781.51547    9.2111218    9.2111218    9.2111218            0 
    4100    305.60345   -10511.855            0   -9601.8205     11971.75    781.89382     9.212608     9.212608     9.212608    27.257175 
    4200    294.46096   -10470.287            0   -9593.4325    1515.7794    782.61523    9.2154405    9.2154405    9.2154405    25.303199 
    4300    307.37319   -10502.936            0   -9587.6313   -2944.8771    783.33051    9.2182472    9.2182472    9.2182472    24.973756 
    4400     294.8991   -10459.073            0   -9580.9137   -132.58681    784.43708    9.2225858    9.2225858    9.2225858    20.859654 
    4500    307.96239   -10494.534            0   -9577.4744   -4411.0507    785.80244    9.2279335    9.2279335    9.2279335    25.473799 
    4600    303.43182   -10477.688            0   -9574.1199   -13384.386    787.27781    9.2337052    9.2337052    9.2337052    26.552437 
    4700    309.75358    -10495.11            0   -9572.7168    2.3906707    788.75249    9.2394669    9.2394669    9.2394669    24.157762 
    4800    300.91481   -10468.393            0   -9572.3205    9900.7764    790.40749    9.2459246    9.2459246    9.2459246    24.202272 
    4900    313.13321   -10505.161            0   -9572.7039    12533.436    792.49606    9.2540613    9.2540613    9.2540613    23.711984 
    5000    317.17029   -10518.811            0   -9574.3324    2473.8805    794.85094    9.2632183    9.2632183    9.2632183    20.227662 
Loop time of 41.543 on 16 procs for 1000 steps with 1000 atoms

Performance: 2.080 ns/day, 11.540 hours/ns, 24.071 timesteps/s
94.1% CPU use with 16 MPI tasks x no OpenMP threads

MPI task timing breakdown:
Section |  min time  |  avg time  |  max time  |%varavg| %total
---------------------------------------------------------------
Pair    | 1.6551     | 1.7196     | 1.8016     |   3.1 |  4.14
Neigh   | 0.58936    | 0.60729    | 0.64532    |   1.8 |  1.46
Comm    | 0.40808    | 0.50455    | 0.56981    |   7.1 |  1.21
Output  | 25.583     | 26.405     | 38.683     |  61.7 | 63.56
Modify  | 0.020697   | 12.3       | 13.122     |  90.4 | 29.61
Other   |            | 0.006874   |            |       |  0.02

Nlocal:    62.5 ave 70 max 57 min
Histogram: 2 2 1 4 2 1 1 1 1 1
Nghost:    1842.19 ave 1865 max 1813 min
Histogram: 1 0 2 1 3 0 3 3 2 1
Neighs:    0 ave 0 max 0 min
Histogram: 16 0 0 0 0 0 0 0 0 0
FullNghs:  18569.5 ave 20904 max 16830 min
Histogram: 1 3 2 1 4 1 1 0 2 1

Total # of neighbors = 297112
Ave neighs/atom = 297.112
Neighbor list builds = 1000
Dangerous builds not checked
Setting up Verlet run ...
  Unit style    : real
  Current step  : 5000
  Time step     : 1
Per MPI rank memory allocation (min/avg/max) = 4.578 | 4.579 | 4.581 Mbytes
Step Temp E_pair E_mol TotEng Press Volume Lx Ly Lz S/CPU 
    5000    317.17029   -10518.811            0   -9574.3324    2473.8805    794.85094    9.2632183    9.2632183    9.2632183            0 
    5100    306.22487    -10487.16            0   -9575.2743    -21097.11    797.18361    9.2722711    9.2722711    9.2722711    21.569308 
    5200     301.8494   -10477.629            0   -9578.7731    -17522.73    798.72087    9.2782274    9.2782274    9.2782274    27.527814 
    5300    295.85556   -10466.327            0   -9585.3197     -10247.6    799.04411    9.2794788    9.2794788    9.2794788    23.417002 
    5400    298.10181   -10483.426            0   -9595.7292   -10375.117    798.22529     9.276308     9.276308     9.276308    22.926856 
    5500    286.77342   -10462.705            0    -9608.743   -7548.5324    796.61322    9.2700591    9.2700591    9.2700591    27.431831 
    5600    287.89892   -10483.907            0   -9626.5929    1548.5877    794.49951    9.2618529    9.2618529    9.2618529    24.871562 
    5700    287.60881   -10496.696            0   -9640.2458   -11061.699    792.17982    9.2528302    9.2528302    9.2528302    25.028403 
    5800    291.36698   -10517.508            0   -9649.8668   -14384.492    789.58566     9.242719     9.242719     9.242719     22.59871 
    5900     290.5311   -10521.436            0   -9656.2842    10630.861    786.42776    9.2303807    9.2303807    9.2303807    26.556281 
    6000    293.90882    -10534.08            0   -9658.8694    1982.8802    783.72426    9.2197915    9.2197915    9.2197915    26.583582 
Loop time of 40.5149 on 16 procs for 1000 steps with 1000 atoms

Performance: 2.133 ns/day, 11.254 hours/ns, 24.682 timesteps/s
94.1% CPU use with 16 MPI tasks x no OpenMP threads

MPI task timing breakdown:
Section |  min time  |  avg time  |  max time  |%varavg| %total
---------------------------------------------------------------
Pair    | 1.6048     | 1.6794     | 1.762      |   3.3 |  4.15
Neigh   | 0.58508    | 0.6042     | 0.6585     |   2.2 |  1.49
Comm    | 0.38808    | 0.52476    | 0.61365    |   7.8 |  1.30
Output  | 25.591     | 26.35      | 37.678     |  57.0 | 65.04
Modify  | 0.020902   | 11.35      | 12.108     |  86.8 | 28.01
Other   |            | 0.006811   |            |       |  0.02

Nlocal:    62.5 ave 70 max 59 min
Histogram: 1 5 4 3 1 1 0 0 0 1
Nghost:    1867.25 ave 1883 max 1850 min
Histogram: 1 2 1 2 2 0 2 3 1 2
Neighs:    0 ave 0 max 0 min
Histogram: 16 0 0 0 0 0 0 0 0 0
FullNghs:  18829 ave 21256 max 17601 min
Histogram: 1 2 5 4 2 1 0 0 0 1

Total # of neighbors = 301264
Ave neighs/atom = 301.264
Neighbor list builds = 1000
Dangerous builds not checked
Setting up Verlet run ...
  Unit style    : real
  Current step  : 6000
  Time step     : 1
Per MPI rank memory allocation (min/avg/max) = 4.578 | 4.579 | 4.581 Mbytes
Step Temp E_pair E_mol TotEng Press Volume Lx Ly Lz S/CPU 
    6000    293.90882    -10534.08            0   -9658.8694    1982.8802    783.72426    9.2197915    9.2197915    9.2197915            0 
    6100    282.69806    -10502.32            0   -9660.4932    17525.955    781.25976    9.2101171    9.2101171    9.2101171    23.438645 
    6200    285.39929   -10510.552            0   -9660.6814    2332.6187    779.29485    9.2023893    9.2023893    9.2023893    26.991265 
    6300    295.72014   -10541.165            0   -9660.5609    5976.6579    777.51458    9.1953765    9.1953765    9.1953765    22.928759 
    6400    299.26902   -10548.395            0   -9657.2225    6629.2835    776.01111    9.1894457    9.1894457    9.1894457    24.721317 
    6500    303.42107    -10556.44            0   -9652.9039    18546.366    774.96182    9.1853019    9.1853019    9.1853019    21.444867 
    6600    293.37365   -10519.992            0   -9646.3756    11687.577    774.72458    9.1843645    9.1843645    9.1843645     22.74037 
    6700    301.62996   -10539.402            0   -9641.1994    14061.634    775.02498    9.1855515    9.1855515    9.1855515    24.399621 
    6800    294.49353   -10510.248            0   -9633.2962    1164.7173    775.80689    9.1886394    9.1886394    9.1886394    24.889756 
    6900    303.28633   -10527.108            0   -9623.9726     2038.943    776.80876    9.1925931    9.1925931    9.1925931     20.34957 
    7000    293.61291   -10487.667            0   -9613.3383    4740.2143    778.14504    9.1978612    9.1978612    9.1978612    24.854867 
Loop time of 42.492 on 16 procs for 1000 steps with 1000 atoms

Performance: 2.033 ns/day, 11.803 hours/ns, 23.534 timesteps/s
94.0% CPU use with 16 MPI tasks x no OpenMP threads

MPI task timing breakdown:
Section |  min time  |  avg time  |  max time  |%varavg| %total
---------------------------------------------------------------
Pair    | 1.6956     | 1.763      | 1.875      |   3.4 |  4.15
Neigh   | 0.58931    | 0.61004    | 0.66905    |   2.4 |  1.44
Comm    | 0.37541    | 0.546      | 0.6349     |   8.5 |  1.28
Output  | 26.862     | 27.658     | 39.545     |  58.4 | 65.09
Modify  | 0.020606   | 11.908     | 12.704     |  88.9 | 28.02
Other   |            | 0.006915   |            |       |  0.02

Nlocal:    62.5 ave 68 max 58 min
Histogram: 1 0 3 0 5 3 2 0 0 2
Nghost:    1876.81 ave 1892 max 1845 min
Histogram: 1 0 1 0 2 3 0 3 1 5
Neighs:    0 ave 0 max 0 min
Histogram: 16 0 0 0 0 0 0 0 0 0
FullNghs:  18976.2 ave 20742 max 17715 min
Histogram: 1 3 0 4 4 2 0 0 1 1

Total # of neighbors = 303620
Ave neighs/atom = 303.62
Neighbor list builds = 1000
Dangerous builds not checked
Setting up Verlet run ...
  Unit style    : real
  Current step  : 7000
  Time step     : 1
Per MPI rank memory allocation (min/avg/max) = 4.578 | 4.579 | 4.581 Mbytes
Step Temp E_pair E_mol TotEng Press Volume Lx Ly Lz S/CPU 
    7000    293.61291   -10487.667            0   -9613.3383    4740.2143    778.14504    9.1978612    9.1978612    9.1978612            0 
    7100    314.13031   -10539.093            0   -9603.6668    10158.173    779.86441    9.2046307    9.2046307    9.2046307    22.907998 
    7200    302.44355   -10495.266            0   -9594.6403   -1219.1028    782.10365    9.2134321    9.2134321    9.2134321    27.433651 
    7300    306.07101    -10498.78            0   -9587.3531    -3991.681     784.5797    9.2231447    9.2231447    9.2231447    26.252295 
    7400    298.12222   -10471.229            0   -9583.4721    4200.2893    787.28247    9.2337234    9.2337234    9.2337234    24.026452 
    7500    297.13686   -10464.821            0   -9579.9977    4011.8519    790.36647    9.2457647    9.2457647    9.2457647    21.831488 
    7600    300.89691   -10473.731            0   -9577.7119    7.4264402    793.36431    9.2574396    9.2574396    9.2574396    28.102081 
    7700    295.91902   -10457.306            0   -9576.1093   -8798.0619     796.1749    9.2683586    9.2683586    9.2683586    25.745384 
    7800    302.74487   -10477.435            0   -9575.9129   -7469.2177    798.05103    9.2756329    9.2756329    9.2756329    19.262263 
    7900    308.20063   -10494.498            0   -9576.7289   -15290.184    798.71847    9.2782181    9.2782181    9.2782181    21.511991 
    8000    304.29666   -10483.941            0   -9577.7975   -20681.033    798.26881    9.2764766    9.2764766    9.2764766    24.447463 
Loop time of 41.9354 on 16 procs for 1000 steps with 1000 atoms

Performance: 2.060 ns/day, 11.649 hours/ns, 23.846 timesteps/s
94.0% CPU use with 16 MPI tasks x no OpenMP threads

MPI task timing breakdown:
Section |  min time  |  avg time  |  max time  |%varavg| %total
---------------------------------------------------------------
Pair    | 1.6444     | 1.7028     | 1.7867     |   3.0 |  4.06
Neigh   | 0.58895    | 0.60586    | 0.65101    |   2.0 |  1.44
Comm    | 0.43708    | 0.52786    | 0.59879    |   6.9 |  1.26
Output  | 25.097     | 25.973     | 39.071     |  66.4 | 61.94
Modify  | 0.020707   | 13.119     | 13.995     |  93.4 | 31.28
Other   |            | 0.006818   |            |       |  0.02

Nlocal:    62.5 ave 68 max 57 min
Histogram: 1 4 1 1 1 0 2 2 3 1
Nghost:    1838 ave 1859 max 1818 min
Histogram: 1 4 1 1 1 2 2 1 0 3
Neighs:    0 ave 0 max 0 min
Histogram: 16 0 0 0 0 0 0 0 0 0
FullNghs:  18465.8 ave 20225 max 16848 min
Histogram: 1 3 2 1 1 1 2 3 1 1

Total # of neighbors = 295452
Ave neighs/atom = 295.452
Neighbor list builds = 1000
Dangerous builds not checked
Setting up Verlet run ...
  Unit style    : real
  Current step  : 8000
  Time step     : 1
Per MPI rank memory allocation (min/avg/max) = 4.578 | 4.579 | 4.581 Mbytes
Step Temp E_pair E_mol TotEng Press Volume Lx Ly Lz S/CPU 
    8000    304.29666   -10483.941            0   -9577.7975   -20681.033    798.26881    9.2764766    9.2764766    9.2764766            0 
    8100    306.81014   -10493.632            0   -9580.0041   -14574.111    796.87591     9.271078     9.271078     9.271078    22.746904 
    8200    310.76993   -10507.371            0   -9581.9512   -5663.0931    794.74179    9.2627942    9.2627942    9.2627942      25.7959 
    8300    302.37099   -10483.934            0   -9583.5245   -2289.4481    792.22574     9.253009     9.253009     9.253009    22.898172 
    8400    306.35309   -10496.263            0    -9583.996   -13241.599       789.37    9.2418774    9.2418774    9.2418774    24.902598 
    8500    309.64228   -10509.737            0   -9587.6747    2993.0447     786.1115    9.2291432    9.2291432    9.2291432    23.024428 
    8600    310.41014    -10514.82            0   -9590.4711    13001.995    782.98002    9.2168721    9.2168721    9.2168721    24.913687 
    8700    296.35225    -10476.35            0   -9593.8636      35635.3    780.77944    9.2082293    9.2082293    9.2082293    24.763727 
    8800    300.97141   -10493.663            0   -9597.4212     8223.383    779.95759    9.2049972    9.2049972    9.2049972    23.783925 
    8900    297.39287   -10487.346            0   -9601.7605    8781.5781    779.96214    9.2050151    9.2050151    9.2050151    26.066864 
    9000    304.82443   -10515.574            0   -9607.8591    15914.294    780.61848    9.2075964    9.2075964    9.2075964    23.490732 
Loop time of 41.3487 on 16 procs for 1000 steps with 1000 atoms

Performance: 2.090 ns/day, 11.486 hours/ns, 24.185 timesteps/s
94.1% CPU use with 16 MPI tasks x no OpenMP threads

MPI task timing breakdown:
Section |  min time  |  avg time  |  max time  |%varavg| %total
---------------------------------------------------------------
Pair    | 1.5972     | 1.7157     | 1.7712     |   3.5 |  4.15
Neigh   | 0.58067    | 0.60807    | 0.64895    |   2.1 |  1.47
Comm    | 0.41348    | 0.50948    | 0.65504    |   8.2 |  1.23
Output  | 25.33      | 26.155     | 38.487     |  62.3 | 63.26
Modify  | 0.020779   | 12.353     | 13.179     |  90.6 | 29.88
Other   |            | 0.006814   |            |       |  0.02

Nlocal:    62.5 ave 67 max 56 min
Histogram: 2 0 1 1 3 1 0 2 2 4
Nghost:    1857.88 ave 1878 max 1829 min
Histogram: 1 0 2 1 1 2 2 4 2 1
Neighs:    0 ave 0 max 0 min
Histogram: 16 0 0 0 0 0 0 0 0 0
FullNghs:  18906.1 ave 20347 max 16941 min
Histogram: 1 1 1 1 2 2 1 3 1 3

Total # of neighbors = 302498
Ave neighs/atom = 302.498
Neighbor list builds = 1000
Dangerous builds not checked
Setting up Verlet run ...
  Unit style    : real
  Current step  : 9000
  Time step     : 1
Per MPI rank memory allocation (min/avg/max) = 4.578 | 4.579 | 4.581 Mbytes
Step Temp E_pair E_mol TotEng Press Volume Lx Ly Lz S/CPU 
    9000    304.82443   -10515.574            0   -9607.8591    15914.294    780.61848    9.2075964    9.2075964    9.2075964            0 
    9100     294.9607   -10493.243            0   -9614.9006    4147.1246     782.0578     9.213252     9.213252     9.213252    22.363441 
    9200     303.1053   -10525.164            0   -9622.5682    3474.2202    783.68473    9.2196364    9.2196364    9.2196364     24.37138 
    9300    304.21327   -10535.609            0   -9629.7138   -5847.1234    785.28267    9.2258985    9.2258985    9.2258985    24.015566 
    9400    295.56898   -10518.093            0   -9637.9387    1984.1556    786.67409    9.2313443    9.2313443    9.2313443    22.114206 
    9500    298.33322   -10534.859            0   -9646.4735    12987.403    788.13576    9.2370582    9.2370582    9.2370582    23.255643 
    9600    293.91832   -10528.962            0   -9653.7231   -3884.3605    789.96676    9.2442058    9.2442058    9.2442058    21.732957 
    9700    291.72303   -10527.693            0   -9658.9916   -2862.9726      791.449    9.2499839    9.2499839    9.2499839    24.431537 
    9800    296.30117   -10544.653            0   -9662.3189   -9793.8484    792.48654    9.2540242    9.2540242    9.2540242    24.717504 
    9900    298.27677   -10553.742            0   -9665.5245   -12307.759    792.71209    9.2549021    9.2549021    9.2549021    22.207921 
   10000    292.18745   -10536.577            0   -9666.4929   -14148.672    791.87832    9.2516562    9.2516562    9.2516562    24.838683 
Loop time of 42.8297 on 16 procs for 1000 steps with 1000 atoms

Performance: 2.017 ns/day, 11.897 hours/ns, 23.348 timesteps/s
94.1% CPU use with 16 MPI tasks x no OpenMP threads

MPI task timing breakdown:
Section |  min time  |  avg time  |  max time  |%varavg| %total
---------------------------------------------------------------
Pair    | 1.6246     | 1.7145     | 1.8502     |   5.1 |  4.00
Neigh   | 0.58487    | 0.60816    | 0.67556    |   2.8 |  1.42
Comm    | 0.40359    | 0.60616    | 0.71318    |  11.0 |  1.42
Output  | 27.669     | 28.435     | 39.872     |  55.4 | 66.39
Modify  | 0.020832   | 11.459     | 12.226     |  87.2 | 26.76
Other   |            | 0.006858   |            |       |  0.02

Nlocal:    62.5 ave 67 max 56 min
Histogram: 1 1 0 2 1 4 1 1 2 3
Nghost:    1844.44 ave 1863 max 1828 min
Histogram: 2 2 1 3 0 0 3 2 2 1
Neighs:    0 ave 0 max 0 min
Histogram: 16 0 0 0 0 0 0 0 0 0
FullNghs:  18633.1 ave 20030 max 16676 min
Histogram: 1 1 0 2 1 4 1 2 2 2

Total # of neighbors = 298130
Ave neighs/atom = 298.13
Neighbor list builds = 1000
Dangerous builds not checked
Setting up Verlet run ...
  Unit style    : real
  Current step  : 10000
  Time step     : 1
Per MPI rank memory allocation (min/avg/max) = 4.578 | 4.579 | 4.581 Mbytes
Step Temp E_pair E_mol TotEng Press Volume Lx Ly Lz S/CPU 
   10000    292.18745   -10536.577            0   -9666.4929   -14148.672    791.87832    9.2516562    9.2516562    9.2516562            0 
   10100     288.0724   -10522.373            0   -9664.5424    4503.8963    790.18729    9.2450659    9.2450659    9.2450659    23.597461 
   10200    290.22945   -10525.128            0   -9660.8741   -11047.516     788.4776    9.2383934    9.2383934    9.2383934    24.302615 
   10300    300.14606   -10551.502            0   -9657.7187    3165.7482    786.60566    9.2310766    9.2310766    9.2310766    24.909032 
   10400     298.4027   -10540.515            0   -9651.9231   -16343.117    784.80161    9.2240142    9.2240142    9.2240142    23.484564 
   10500     299.4096   -10537.203            0   -9645.6118    8773.0304    782.90496    9.2165775    9.2165775    9.2165775    22.791583 
   10600    290.48293   -10503.303            0   -9638.2949    4395.3291    781.28644    9.2102219    9.2102219    9.2102219    24.960639 
   10700     293.7678   -10505.403            0   -9630.6125     16182.38    780.09844    9.2055513    9.2055513    9.2055513    26.945522 
   10800    304.31545   -10531.176            0   -9624.9764   -6885.2887    779.37901    9.2027206    9.2027206    9.2027206    24.203686 
   10900     292.8811   -10489.443            0   -9617.2928    12925.458     778.8683      9.20071      9.20071      9.20071    25.214735 
   11000    294.75848   -10489.905            0   -9612.1646    586.75702    778.57366    9.1995497    9.1995497    9.1995497    27.868727 
Loop time of 40.4161 on 16 procs for 1000 steps with 1000 atoms

Performance: 2.138 ns/day, 11.227 hours/ns, 24.743 timesteps/s
94.1% CPU use with 16 MPI tasks x no OpenMP threads

MPI task timing breakdown:
Section |  min time  |  avg time  |  max time  |%varavg| %total
---------------------------------------------------------------
Pair    | 1.6461     | 1.7328     | 1.8265     |   4.2 |  4.29
Neigh   | 0.58654    | 0.60983    | 0.66052    |   2.4 |  1.51
Comm    | 0.42926    | 0.55889    | 0.66855    |   9.2 |  1.38
Output  | 25.635     | 26.378     | 37.486     |  55.8 | 65.27
Modify  | 0.021007   | 11.129     | 11.874     |  86.0 | 27.54
Other   |            | 0.006862   |            |       |  0.02

Nlocal:    62.5 ave 69 max 58 min
Histogram: 4 1 2 0 4 1 1 1 0 2
Nghost:    1867.19 ave 1881 max 1843 min
Histogram: 2 0 0 1 1 1 3 3 1 4
Neighs:    0 ave 0 max 0 min
Histogram: 16 0 0 0 0 0 0 0 0 0
FullNghs:  18951.4 ave 20988 max 17416 min
Histogram: 3 1 2 1 3 2 0 2 1 1

Total # of neighbors = 303222
Ave neighs/atom = 303.222
Neighbor list builds = 1000
Dangerous builds not checked
Setting up Verlet run ...
  Unit style    : real
  Current step  : 11000
  Time step     : 1
Per MPI rank memory allocation (min/avg/max) = 4.578 | 4.579 | 4.581 Mbytes
Step Temp E_pair E_mol TotEng Press Volume Lx Ly Lz S/CPU 
   11000    294.75848   -10489.905            0   -9612.1646    586.75702    778.57366    9.1995497    9.1995497    9.1995497            0 
   11100    306.02831   -10521.479            0   -9610.1792    4576.8057    778.70103    9.2000513    9.2000513    9.2000513    26.073247 
   11200    298.99136   -10498.177            0   -9607.8322    8854.3587    779.36523    9.2026663    9.2026663    9.2026663    22.289611 
   11300    295.32707   -10485.494            0   -9606.0605    9923.5353     780.5927    9.2074951    9.2074951    9.2074951    26.084307 
   11400    303.61456   -10511.403            0   -9607.2909    218.43101    782.35935     9.214436     9.214436     9.214436    26.387254 
   11500    306.01906   -10518.475            0   -9607.2021    1934.0113    784.24426    9.2218301    9.2218301    9.2218301    29.162801 
   11600    300.68631   -10501.896            0   -9606.5037     945.3182     786.2319    9.2296143    9.2296143    9.2296143     23.92354 
   11700    295.30366   -10485.596            0   -9606.2323    5725.3964    788.10234    9.2369276    9.2369276    9.2369276    28.800498 
   11800    299.06684   -10497.712            0    -9607.142   -2652.7243    789.73149     9.243288     9.243288     9.243288     26.03068 
   11900    297.80958   -10493.768            0   -9606.9423   -8118.3622    791.03256    9.2483613    9.2483613    9.2483613    23.618214 
   12000    303.25225   -10508.907            0   -9605.8734   -16474.144    791.37106    9.2496803    9.2496803    9.2496803    27.276614 
Loop time of 38.7682 on 16 procs for 1000 steps with 1000 atoms

Performance: 2.229 ns/day, 10.769 hours/ns, 25.794 timesteps/s
94.1% CPU use with 16 MPI tasks x no OpenMP threads

MPI task timing breakdown:
Section |  min time  |  avg time  |  max time  |%varavg| %total
---------------------------------------------------------------
Pair    | 1.6584     | 1.7308     | 1.8098     |   3.8 |  4.46
Neigh   | 0.58744    | 0.60912    | 0.65628    |   2.1 |  1.57
Comm    | 0.43466    | 0.55262    | 0.64096    |   8.5 |  1.43
Output  | 23.739     | 24.499     | 35.847     |  59.2 | 63.19
Modify  | 0.021201   | 11.37      | 12.131     |  86.9 | 29.33
Other   |            | 0.006896   |            |       |  0.02

Nlocal:    62.5 ave 69 max 58 min
Histogram: 3 3 1 1 3 1 1 1 0 2
Nghost:    1842.56 ave 1869 max 1812 min
Histogram: 1 2 2 3 0 0 1 1 3 3
Neighs:    0 ave 0 max 0 min
Histogram: 16 0 0 0 0 0 0 0 0 0
FullNghs:  18657.1 ave 20727 max 17223 min
Histogram: 1 4 1 2 3 2 0 1 1 1

Total # of neighbors = 298514
Ave neighs/atom = 298.514
Neighbor list builds = 1000
Dangerous builds not checked
Setting up Verlet run ...
  Unit style    : real
  Current step  : 12000
  Time step     : 1
Per MPI rank memory allocation (min/avg/max) = 4.578 | 4.579 | 4.581 Mbytes
Step Temp E_pair E_mol TotEng Press Volume Lx Ly Lz S/CPU 
   12000    303.25225   -10508.907            0   -9605.8734   -16474.144    791.37106    9.2496803    9.2496803    9.2496803            0 
   12100     296.1675    -10484.65            0   -9602.7136   -16253.446    790.94907    9.2480359    9.2480359    9.2480359    25.850296 
   12200    299.74222   -10492.833            0   -9600.2521   -2354.3218    789.83842    9.2437052    9.2437052    9.2437052    27.440577 
   12300    293.22874   -10470.336            0   -9597.1508   -16695.723    788.55695    9.2387033    9.2387033    9.2387033    23.198693 
   12400    297.04602   -10477.182            0   -9592.6301   -8074.9264    786.68564    9.2313895    9.2313895    9.2313895    22.589974 
   12500    301.17363   -10484.302            0   -9587.4582   -4973.2394    784.38382    9.2223771    9.2223771    9.2223771    26.773346 
   12600    291.08965     -10448.1            0   -9581.2846    626.32715    782.06878    9.2132951    9.2132951    9.2132951    24.998612 
   12700    297.16702   -10461.836            0   -9576.9233    20118.841     779.9178    9.2048407    9.2048407    9.2048407    25.674595 
   12800    303.11157   -10475.487            0   -9572.8723    15163.189    778.66445    9.1999073    9.1999073    9.1999073     24.27543 
   12900    300.34661   -10462.095            0   -9567.7141    16304.771     778.1444    9.1978587    9.1978587    9.1978587    19.484116 
   13000    294.41169   -10440.036            0   -9563.3285    10298.574    778.92894    9.2009488    9.2009488    9.2009488    22.860533 
Loop time of 41.5063 on 16 procs for 1000 steps with 1000 atoms

Performance: 2.082 ns/day, 11.530 hours/ns, 24.093 timesteps/s
94.1% CPU use with 16 MPI tasks x no OpenMP threads

MPI task timing breakdown:
Section |  min time  |  avg time  |  max time  |%varavg| %total
---------------------------------------------------------------
Pair    | 1.6021     | 1.7345     | 1.802      |   3.9 |  4.18
Neigh   | 0.58391    | 0.60935    | 0.64997    |   1.9 |  1.47
Comm    | 0.4591     | 0.53341    | 0.6923     |   8.5 |  1.29
Output  | 25.161     | 26.004     | 38.601     |  63.8 | 62.65
Modify  | 0.021052   | 12.618     | 13.462     |  91.6 | 30.40
Other   |            | 0.006863   |            |       |  0.02

Nlocal:    62.5 ave 68 max 57 min
Histogram: 3 2 1 0 1 2 1 2 1 3
Nghost:    1854.62 ave 1885 max 1820 min
Histogram: 1 0 1 4 2 2 3 0 0 3
Neighs:    0 ave 0 max 0 min
Histogram: 16 0 0 0 0 0 0 0 0 0
FullNghs:  18952 ave 20737 max 17189 min
Histogram: 2 2 1 1 1 2 1 2 3 1

Total # of neighbors = 303232
Ave neighs/atom = 303.232
Neighbor list builds = 1000
Dangerous builds not checked
Setting up Verlet run ...
  Unit style    : real
  Current step  : 13000
  Time step     : 1
Per MPI rank memory allocation (min/avg/max) = 4.578 | 4.579 | 4.581 Mbytes
Step Temp E_pair E_mol TotEng Press Volume Lx Ly Lz S/CPU 
   13000    294.41169   -10440.036            0   -9563.3285    10298.574    778.92894    9.2009488    9.2009488    9.2009488            0 
   13100     307.0767   -10472.698            0   -9558.2765    17668.237    780.86102    9.2085499    9.2085499    9.2085499    23.693414 
   13200    301.53517   -10450.814            0   -9552.8936    23972.039    783.76006    9.2199318    9.2199318    9.2199318    23.900107 
   13300    299.16727   -10440.073            0   -9549.2036    2455.1007     787.7556    9.2355727    9.2355727    9.2355727    24.840397 
   13400    299.17679   -10434.885            0   -9543.9877   -19688.864    791.33514    9.2495403    9.2495403    9.2495403    24.935798 
   13500    297.44316   -10425.783            0   -9540.0483   -14088.655    793.81555    9.2591944    9.2591944    9.2591944    26.399406 
   13600    304.27108   -10441.117            0   -9535.0498   -17225.564    795.16144    9.2644243    9.2644243    9.2644243    23.502242 
   13700    306.52662   -10444.956            0   -9532.1719   -6855.6348    795.30539    9.2649833    9.2649833    9.2649833    23.909255 
   13800     310.9957   -10456.591            0   -9530.4992   -5441.2741    794.32256    9.2611652    9.2611652    9.2611652    28.230247 
   13900    303.28963   -10431.503            0   -9528.3581   -1813.6405     792.5872     9.254416     9.254416     9.254416    21.195093 
   14000    301.15367   -10426.292            0   -9529.5075    4546.5728      790.425    9.2459929    9.2459929    9.2459929    27.392174 
Loop time of 40.5771 on 16 procs for 1000 steps with 1000 atoms

Performance: 2.129 ns/day, 11.271 hours/ns, 24.644 timesteps/s
94.1% CPU use with 16 MPI tasks x no OpenMP threads

MPI task timing breakdown:
Section |  min time  |  avg time  |  max time  |%varavg| %total
---------------------------------------------------------------
Pair    | 1.6422     | 1.7098     | 1.8174     |   3.7 |  4.21
Neigh   | 0.58094    | 0.6059     | 0.64958    |   2.2 |  1.49
Comm    | 0.41759    | 0.5514     | 0.64409    |   8.4 |  1.36
Output  | 25.178     | 25.963     | 37.682     |  59.4 | 63.98
Modify  | 0.020736   | 11.74      | 12.525     |  88.3 | 28.93
Other   |            | 0.006792   |            |       |  0.02

Nlocal:    62.5 ave 67 max 58 min
Histogram: 1 1 2 1 4 2 0 3 1 1
Nghost:    1850.75 ave 1879 max 1825 min
Histogram: 2 2 1 2 1 0 2 4 0 2
Neighs:    0 ave 0 max 0 min
Histogram: 16 0 0 0 0 0 0 0 0 0
FullNghs:  18679.9 ave 20054 max 17260 min
Histogram: 2 1 1 2 1 3 2 2 0 2

Total # of neighbors = 298878
Ave neighs/atom = 298.878
Neighbor list builds = 1000
Dangerous builds not checked
Setting up Verlet run ...
  Unit style    : real
  Current step  : 14000
  Time step     : 1
Per MPI rank memory allocation (min/avg/max) = 4.578 | 4.579 | 4.581 Mbytes
Step Temp E_pair E_mol TotEng Press Volume Lx Ly Lz S/CPU 
   14000    301.15367   -10426.292            0   -9529.5075    4546.5728      790.425    9.2459929    9.2459929    9.2459929            0 
   14100    301.56333   -10430.277            0   -9532.2729    -13406.16    788.27804     9.237614     9.237614     9.237614    26.281993 
   14200    305.98999   -10447.551            0   -9536.3654    3661.3812    786.24475    9.2296646    9.2296646    9.2296646     23.88457 
   14300    310.01803     -10467.6            0   -9544.4194     11720.64     784.6016    9.2232305    9.2232305    9.2232305    24.065488 
   14400    310.83231   -10481.629            0   -9556.0234    6122.7724     783.5696    9.2191849    9.2191849    9.2191849    26.297195 
   14500    304.36131    -10476.23            0   -9569.8936    9288.5001    783.01784    9.2170205    9.2170205    9.2170205    24.061287 
   14600    302.91185    -10485.99            0   -9583.9706    634.34676    782.57361    9.2152771    9.2152771    9.2152771    25.705755 
   14700     309.1577   -10518.447            0   -9597.8283   -625.83834    781.96629    9.2128927    9.2128927    9.2128927    28.424144 
   14800    305.07434   -10516.877            0   -9608.4181   -6497.8254    781.42715    9.2107748    9.2107748    9.2107748    27.467135 
   14900    307.77804    -10534.29            0   -9617.7795    732.86238     780.9642    9.2089555    9.2089555    9.2089555    23.938906 
   15000      294.129   -10499.365            0   -9623.4993   -4291.3683     780.7913    9.2082759    9.2082759    9.2082759    28.245148 
Loop time of 38.8725 on 16 procs for 1000 steps with 1000 atoms

Performance: 2.223 ns/day, 10.798 hours/ns, 25.725 timesteps/s
94.1% CPU use with 16 MPI tasks x no OpenMP threads

MPI task timing breakdown:
Section |  min time  |  avg time  |  max time  |%varavg| %total
---------------------------------------------------------------
Pair    | 1.6434     | 1.7393     | 1.8724     |   4.5 |  4.47
Neigh   | 0.58453    | 0.60925    | 0.66284    |   2.4 |  1.57
Comm    | 0.39183    | 0.57827    | 0.69845    |  10.0 |  1.49
Output  | 24.025     | 24.771     | 35.917     |  57.8 | 63.72
Modify  | 0.021185   | 11.167     | 11.914     |  86.1 | 28.73
Other   |            | 0.006914   |            |       |  0.02

Nlocal:    62.5 ave 67 max 58 min
Histogram: 1 0 2 4 2 1 3 0 2 1
Nghost:    1846.19 ave 1866 max 1833 min
Histogram: 1 2 3 2 3 2 2 0 0 1
Neighs:    0 ave 0 max 0 min
Histogram: 16 0 0 0 0 0 0 0 0 0
FullNghs:  18904.5 ave 20363 max 17365 min
Histogram: 1 0 1 5 2 2 2 0 1 2

Total # of neighbors = 302472
Ave neighs/atom = 302.472
Neighbor list builds = 1000
Dangerous builds not checked
Setting up Verlet run ...
  Unit style    : real
  Current step  : 15000
  Time step     : 1
Per MPI rank memory allocation (min/avg/max) = 4.578 | 4.579 | 4.581 Mbytes
Step Temp E_pair E_mol TotEng Press Volume Lx Ly Lz S/CPU 
   15000      294.129   -10499.365            0   -9623.4993   -4291.3683     780.7913    9.2082759    9.2082759    9.2082759            0 
   15100     300.4785   -10523.339            0    -9628.565    2689.5497    780.95615    9.2089239    9.2089239    9.2089239    28.095914 
   15200    304.24769   -10538.646            0   -9632.6479    3676.7648    781.29385    9.2102511    9.2102511    9.2102511    24.445262 
   15300    289.18797   -10495.609            0   -9634.4562   -9590.0056    781.59019    9.2114154    9.2114154    9.2114154    26.464451 
   15400     292.1446   -10504.927            0   -9634.9701   -6181.3261    781.41337    9.2107207    9.2107207    9.2107207    28.720103 
   15500    305.90588   -10545.875            0   -9634.9394   -10692.999    781.10446    9.2095068    9.2095068    9.2095068    24.241731 
   15600    292.68445   -10504.297            0   -9632.7327    13406.909    781.02231    9.2091839    9.2091839    9.2091839    24.678452 
   15700    292.98907    -10501.38            0   -9628.9087   -7656.8748    781.42826    9.2107792    9.2107792    9.2107792    28.702707 
   15800    295.79582   -10506.095            0   -9625.2653   -5129.5275    782.02747    9.2131329    9.2131329    9.2131329    24.099829 
   15900    301.88008   -10518.255            0   -9619.3077   -4009.2526    782.44391     9.214768     9.214768     9.214768    20.265614 
   16000    303.40653   -10516.012            0   -9612.5192   -14848.614    782.12067    9.2134989    9.2134989    9.2134989    23.505182 
Loop time of 39.91 on 16 procs for 1000 steps with 1000 atoms

Performance: 2.165 ns/day, 11.086 hours/ns, 25.056 timesteps/s
94.1% CPU use with 16 MPI tasks x no OpenMP threads

MPI task timing breakdown:
Section |  min time  |  avg time  |  max time  |%varavg| %total
---------------------------------------------------------------
Pair    | 1.6662     | 1.7428     | 1.7966     |   2.9 |  4.37
Neigh   | 0.59339    | 0.60752    | 0.63779    |   1.4 |  1.52
Comm    | 0.43492    | 0.51238    | 0.60437    |   6.6 |  1.28
Output  | 24.989     | 25.744     | 37.019     |  57.4 | 64.50
Modify  | 0.020354   | 11.297     | 12.051     |  86.6 | 28.30
Other   |            | 0.006851   |            |       |  0.02

Nlocal:    62.5 ave 68 max 58 min
Histogram: 1 2 2 3 1 0 1 4 0 2
Nghost:    1855.88 ave 1876 max 1838 min
Histogram: 4 0 2 0 1 3 2 2 0 2
Neighs:    0 ave 0 max 0 min
Histogram: 16 0 0 0 0 0 0 0 0 0
FullNghs:  18864.4 ave 20735 max 17393 min
Histogram: 1 4 1 3 0 1 3 1 1 1

Total # of neighbors = 301830
Ave neighs/atom = 301.83
Neighbor list builds = 1000
Dangerous builds not checked
Setting up Verlet run ...
  Unit style    : real
  Current step  : 16000
  Time step     : 1
Per MPI rank memory allocation (min/avg/max) = 4.578 | 4.579 | 4.581 Mbytes
Step Temp E_pair E_mol TotEng Press Volume Lx Ly Lz S/CPU 
   16000    303.40653   -10516.012            0   -9612.5192   -14848.614    782.12067    9.2134989    9.2134989    9.2134989            0 
   16100    303.73649   -10509.458            0   -9604.9822   -10958.607    781.17402    9.2097802    9.2097802    9.2097802    27.539504 
   16200    301.83799   -10495.087            0   -9596.2654   -11317.716    779.94303      9.20494      9.20494      9.20494    24.357571 
   16300    306.64024   -10501.665            0   -9588.5425    22095.881    778.54016    9.1994178    9.1994178    9.1994178    26.928586 
   16400    307.04095    -10495.36            0   -9581.0446    158.54741    777.82922    9.1966167    9.1966167    9.1966167    23.636702 
   16500    311.07642   -10500.008            0   -9573.6754    5288.6674    777.79207    9.1964703    9.1964703    9.1964703    25.976978 
   16600    310.45329   -10492.069            0   -9567.5925    12931.916    778.67483    9.1999481    9.1999481    9.1999481    23.050447 
   16700    307.81372   -10480.222            0   -9563.6052    1431.0741    780.49268    9.2071018    9.2071018    9.2071018    25.426809 
   16800    316.41594   -10504.412            0   -9562.1794    2909.8027    783.06177    9.2171928    9.2171928    9.2171928    26.977408 
   16900     306.3139   -10472.979            0   -9560.8289    11986.398    786.01439    9.2287631    9.2287631    9.2287631    23.671459 
   17000    310.27224   -10486.201            0    -9562.263    -4751.167    789.12004    9.2409018    9.2409018    9.2409018    25.270857 
Loop time of 39.6901 on 16 procs for 1000 steps with 1000 atoms

Performance: 2.177 ns/day, 11.025 hours/ns, 25.195 timesteps/s
94.0% CPU use with 16 MPI tasks x no OpenMP threads

MPI task timing breakdown:
Section |  min time  |  avg time  |  max time  |%varavg| %total
---------------------------------------------------------------
Pair    | 1.6788     | 1.7478     | 1.8254     |   3.3 |  4.40
Neigh   | 0.58653    | 0.60961    | 0.64627    |   1.8 |  1.54
Comm    | 0.41751    | 0.5316     | 0.62369    |   7.5 |  1.34
Output  | 24.593     | 25.357     | 36.773     |  58.5 | 63.89
Modify  | 0.020866   | 11.437     | 12.201     |  87.2 | 28.82
Other   |            | 0.006892   |            |       |  0.02

Nlocal:    62.5 ave 67 max 58 min
Histogram: 1 1 2 3 1 1 4 1 0 2
Nghost:    1839.38 ave 1856 max 1826 min
Histogram: 2 2 3 1 1 2 1 1 0 3
Neighs:    0 ave 0 max 0 min
Histogram: 16 0 0 0 0 0 0 0 0 0
FullNghs:  18711.4 ave 20126 max 17355 min
Histogram: 1 3 0 3 1 1 4 1 0 2

Total # of neighbors = 299382
Ave neighs/atom = 299.382
Neighbor list builds = 1000
Dangerous builds not checked
Setting up Verlet run ...
  Unit style    : real
  Current step  : 17000
  Time step     : 1
Per MPI rank memory allocation (min/avg/max) = 4.578 | 4.579 | 4.581 Mbytes
Step Temp E_pair E_mol TotEng Press Volume Lx Ly Lz S/CPU 
   17000    310.27224   -10486.201            0    -9562.263    -4751.167    789.12004    9.2409018    9.2409018    9.2409018            0 
   17100     302.3014   -10466.757            0   -9566.5552   -14681.161    791.77369    9.2512487    9.2512487    9.2512487    25.924178 
   17200     306.1695   -10487.045            0   -9575.3242   -14828.868     793.5318     9.258091     9.258091     9.258091    24.626825 
   17300    288.63885   -10446.331            0   -9586.8142   -15239.047    794.19263    9.2606603    9.2606603    9.2606603    27.292039 
   17400    307.02777   -10517.473            0   -9603.1963   -16419.707    793.55456    9.2581795    9.2581795    9.2581795    25.691371 
   17500    299.01864   -10506.166            0   -9615.7398    -5444.493    791.80069    9.2513538    9.2513538    9.2513538    24.334631 
   17600     292.7233   -10499.267            0   -9627.5865    -4192.777    789.41652     9.242059     9.242059     9.242059    27.555732 
   17700    293.27369   -10509.755            0    -9636.436   -7793.6832    786.44934    9.2304651    9.2304651    9.2304651    23.758772 
   17800    288.71008   -10500.327            0   -9640.5972   -8712.6485       783.42    9.2185982    9.2185982    9.2185982    26.576336 
   17900    283.07366    -10487.27            0   -9644.3252    9619.9168    780.24463    9.2061263    9.2061263    9.2061263    27.352972 
   18000    287.79055   -10503.961            0   -9646.9699      600.049    777.47677    9.1952274    9.1952274    9.1952274    22.160444 
Loop time of 39.353 on 16 procs for 1000 steps with 1000 atoms

Performance: 2.196 ns/day, 10.931 hours/ns, 25.411 timesteps/s
94.1% CPU use with 16 MPI tasks x no OpenMP threads

MPI task timing breakdown:
Section |  min time  |  avg time  |  max time  |%varavg| %total
---------------------------------------------------------------
Pair    | 1.6387     | 1.7044     | 1.7972     |   3.3 |  4.33
Neigh   | 0.58462    | 0.60697    | 0.66026    |   2.2 |  1.54
Comm    | 0.37928    | 0.52525    | 0.61449    |   8.1 |  1.33
Output  | 24.574     | 25.322     | 36.488     |  57.3 | 64.35
Modify  | 0.02066    | 11.188     | 11.936     |  86.2 | 28.43
Other   |            | 0.006814   |            |       |  0.02

Nlocal:    62.5 ave 68 max 55 min
Histogram: 1 0 2 0 0 4 5 2 1 1
Nghost:    1871.5 ave 1879 max 1864 min
Histogram: 3 1 2 0 1 2 2 0 3 2
Neighs:    0 ave 0 max 0 min
Histogram: 16 0 0 0 0 0 0 0 0 0
FullNghs:  18965.2 ave 20815 max 16781 min
Histogram: 1 0 2 0 4 1 4 3 0 1

Total # of neighbors = 303444
Ave neighs/atom = 303.444
Neighbor list builds = 1000
Dangerous builds not checked
Setting up Verlet run ...
  Unit style    : real
  Current step  : 18000
  Time step     : 1
Per MPI rank memory allocation (min/avg/max) = 4.578 | 4.579 | 4.581 Mbytes
Step Temp E_pair E_mol TotEng Press Volume Lx Ly Lz S/CPU 
   18000    287.79055   -10503.961            0   -9646.9699      600.049    777.47677    9.1952274    9.1952274    9.1952274            0 
   18100    307.42558   -10564.171            0     -9648.71    4756.8329    775.25632    9.1864653    9.1864653    9.1864653    25.165962 
   18200    304.00888   -10554.342            0   -9649.0552     11902.88    773.45543    9.1793465    9.1793465    9.1793465    25.488965 
   18300     291.7416   -10516.343            0   -9647.5867    13177.297    772.12656    9.1740865    9.1740865    9.1740865    25.198661 
   18400    306.76727    -10561.58            0   -9648.0793    18947.239    771.47905    9.1715213    9.1715213    9.1715213    27.505404 
   18500    305.59282   -10556.273            0   -9646.2702    10775.675    771.89169    9.1731562    9.1731562    9.1731562    29.387151 
   18600     294.6095   -10520.377            0   -9643.0802    10310.807    773.03194    9.1776709    9.1776709    9.1776709    24.513128 
   18700     294.8252   -10517.176            0   -9639.2371    10856.998    774.83012    9.1847816    9.1847816    9.1847816    25.217106 
   18800    296.98644   -10517.764            0   -9633.3892     4066.677      777.118    9.1938128    9.1938128    9.1938128    26.211787 
   18900    295.55735   -10503.914            0   -9623.7944   -2734.2921     779.4888    9.2031527    9.2031527    9.2031527    27.573626 
   19000    303.94324   -10517.877            0   -9612.7859   -2101.5209    781.33747    9.2104224    9.2104224    9.2104224    26.260004 
Loop time of 38.1987 on 16 procs for 1000 steps with 1000 atoms

Performance: 2.262 ns/day, 10.611 hours/ns, 26.179 timesteps/s
94.1% CPU use with 16 MPI tasks x no OpenMP threads

MPI task timing breakdown:
Section |  min time  |  avg time  |  max time  |%varavg| %total
---------------------------------------------------------------
Pair    | 1.6918     | 1.7738     | 1.8908     |   3.4 |  4.64
Neigh   | 0.59101    | 0.61161    | 0.65466    |   1.8 |  1.60
Comm    | 0.39758    | 0.53312    | 0.63197    |   7.5 |  1.40
Output  | 24.075     | 24.777     | 35.252     |  54.3 | 64.86
Modify  | 0.020783   | 10.497     | 11.198     |  83.5 | 27.48
Other   |            | 0.006878   |            |       |  0.02

Nlocal:    62.5 ave 70 max 56 min
Histogram: 2 1 2 0 3 4 1 2 0 1
Nghost:    1854.62 ave 1867 max 1843 min
Histogram: 2 1 1 1 4 3 0 0 2 2
Neighs:    0 ave 0 max 0 min
Histogram: 16 0 0 0 0 0 0 0 0 0
FullNghs:  18921.8 ave 21457 max 17056 min
Histogram: 3 1 1 1 3 4 1 1 0 1

Total # of neighbors = 302748
Ave neighs/atom = 302.748
Neighbor list builds = 1000
Dangerous builds not checked
Setting up Verlet run ...
  Unit style    : real
  Current step  : 19000
  Time step     : 1
Per MPI rank memory allocation (min/avg/max) = 4.578 | 4.579 | 4.581 Mbytes
Step Temp E_pair E_mol TotEng Press Volume Lx Ly Lz S/CPU 
   19000    303.94324   -10517.877            0   -9612.7859   -2101.5209    781.33747    9.2104224    9.2104224    9.2104224            0 
   19100    302.40989    -10500.74            0   -9600.2148   -8758.6717    782.94766    9.2167451    9.2167451    9.2167451    22.404576 
   19200    299.78349   -10479.732            0    -9587.028   -10431.339    784.01976      9.22095      9.22095      9.22095    27.318735 
   19300    305.25586    -10483.63            0   -9574.6298   -9630.5205     785.0193    9.2248669    9.2248669    9.2248669     25.82562 
   19400    306.20166   -10476.134            0   -9564.3178    -6230.438    785.40419    9.2263744    9.2263744    9.2263744     24.28529 
   19500    298.90358   -10446.848            0   -9556.7637    7862.1694    785.09103    9.2251479    9.2251479    9.2251479    22.826618 
   19600    307.15167   -10465.839            0   -9551.1939   -14086.987    785.00898    9.2248265    9.2248265    9.2248265    26.226363 
   19700    293.87182   -10423.298            0   -9548.1976   -13728.182    784.77615    9.2239144    9.2239144    9.2239144    25.018867 
   19800     304.0243   -10450.852            0   -9545.5192   -3008.7422    784.36613    9.2223078    9.2223078    9.2223078    24.033101 
   19900    303.90309   -10450.455            0   -9545.4833    -6261.474    783.93616    9.2206223    9.2206223    9.2206223    28.349187 
   20000    306.56656    -10457.23            0   -9544.3274   -18796.015    783.35954     9.218361     9.218361     9.218361    25.446188 
Loop time of 39.9228 on 16 procs for 1000 steps with 1000 atoms

Performance: 2.164 ns/day, 11.090 hours/ns, 25.048 timesteps/s
94.1% CPU use with 16 MPI tasks x no OpenMP threads

MPI task timing breakdown:
Section |  min time  |  avg time  |  max time  |%varavg| %total
---------------------------------------------------------------
Pair    | 1.6749     | 1.7325     | 1.8353     |   3.0 |  4.34
Neigh   | 0.58668    | 0.60728    | 0.63812    |   1.9 |  1.52
Comm    | 0.37378    | 0.49045    | 0.56889    |   7.2 |  1.23
Output  | 25.227     | 25.97      | 37.065     |  56.2 | 65.05
Modify  | 0.020774   | 11.116     | 11.859     |  85.9 | 27.84
Other   |            | 0.006857   |            |       |  0.02

Nlocal:    62.5 ave 71 max 57 min
Histogram: 2 2 3 2 1 3 1 1 0 1
Nghost:    1853.44 ave 1876 max 1838 min
Histogram: 3 2 2 2 2 0 2 1 0 2
Neighs:    0 ave 0 max 0 min
Histogram: 16 0 0 0 0 0 0 0 0 0
FullNghs:  18845.1 ave 21564 max 17194 min
Histogram: 3 1 3 2 1 3 1 1 0 1

Total # of neighbors = 301522
Ave neighs/atom = 301.522
Neighbor list builds = 1000
Dangerous builds not checked
Setting up Verlet run ...
  Unit style    : real
  Current step  : 20000
  Time step     : 1
Per MPI rank memory allocation (min/avg/max) = 4.578 | 4.579 | 4.581 Mbytes
Step Temp E_pair E_mol TotEng Press Volume Lx Ly Lz S/CPU 
   20000    306.56656    -10457.23            0   -9544.3274   -18796.015    783.35954     9.218361     9.218361     9.218361            0 
   20100    305.30974   -10453.089            0   -9543.9284   -16550.965    782.48914    9.2149455    9.2149455    9.2149455    24.303113 
   20200    310.37651   -10468.391            0   -9544.1425    10311.321    781.82839     9.212351     9.212351     9.212351    25.863937 
   20300    304.23864   -10452.039            0   -9546.0684   -2790.6746    781.57584     9.211359     9.211359     9.211359     27.28429 
   20400    297.78351   -10436.066            0   -9549.3178   -2033.3332    781.03788    9.2092451    9.2092451    9.2092451    22.932191 
   20500    308.08758   -10474.019            0   -9556.5871    4700.1106    780.39673    9.2067245    9.2067245    9.2067245     22.39235 
   20600    294.92008   -10440.193            0   -9561.9716    7601.3043    780.16825    9.2058259    9.2058259    9.2058259    25.751209 
   20700    291.29259   -10438.165            0   -9570.7454    153.23725    780.38847     9.206692     9.206692     9.206692    26.239775 
   20800    300.82206   -10476.098            0   -9580.3016   -12452.874    780.55695    9.2073545    9.2073545    9.2073545    27.441513 
   20900    307.87581   -10507.715            0   -9590.9132    4369.9951    780.47178    9.2070196    9.2070196    9.2070196    22.567697 
   21000    289.99631   -10464.682            0   -9601.1225    2550.4164    780.96742    9.2089682    9.2089682    9.2089682    26.841296 
Loop time of 39.9679 on 16 procs for 1000 steps with 1000 atoms

Performance: 2.162 ns/day, 11.102 hours/ns, 25.020 timesteps/s
94.1% CPU use with 16 MPI tasks x no OpenMP threads

MPI task timing breakdown:
Section |  min time  |  avg time  |  max time  |%varavg| %total
---------------------------------------------------------------
Pair    | 1.688      | 1.7471     | 1.8151     |   2.6 |  4.37
Neigh   | 0.59406    | 0.60822    | 0.63654    |   1.3 |  1.52
Comm    | 0.41003    | 0.48647    | 0.55372    |   5.7 |  1.22
Output  | 25.483     | 26.212     | 37.099     |  54.9 | 65.58
Modify  | 0.020125   | 10.907     | 11.636     |  85.1 | 27.29
Other   |            | 0.006845   |            |       |  0.02

Nlocal:    62.5 ave 68 max 57 min
Histogram: 2 2 2 0 2 2 1 1 1 3
Nghost:    1871.94 ave 1894 max 1844 min
Histogram: 1 0 1 3 2 3 0 2 3 1
Neighs:    0 ave 0 max 0 min
Histogram: 16 0 0 0 0 0 0 0 0 0
FullNghs:  18899.5 ave 20607 max 17031 min
Histogram: 1 2 1 2 1 3 1 2 0 3

Total # of neighbors = 302392
Ave neighs/atom = 302.392
Neighbor list builds = 1000
Dangerous builds not checked
Setting up Verlet run ...
  Unit style    : real
  Current step  : 21000
  Time step     : 1
Per MPI rank memory allocation (min/avg/max) = 4.578 | 4.579 | 4.581 Mbytes
Step Temp E_pair E_mol TotEng Press Volume Lx Ly Lz S/CPU 
   21000    289.99631   -10464.682            0   -9601.1225    2550.4164    780.96742    9.2089682    9.2089682    9.2089682            0 
   21100    304.86575   -10518.848            0   -9611.0101   -5030.4098    781.54069    9.2112209    9.2112209    9.2112209    28.113562 
   21200    302.15222   -10518.446            0   -9618.6883    3097.9911    782.07085    9.2133032    9.2133032    9.2133032    26.021373 
   21300    301.90343   -10523.142            0   -9624.1254   -1536.3565    782.83522    9.2163039    9.2163039    9.2163039    25.691027 
   21400    307.17709   -10540.942            0   -9626.2206    2485.2215    783.93271    9.2206088    9.2206088    9.2206088    26.835134 
   21500    301.94771   -10526.403            0   -9627.2545   -5061.0916    784.64946    9.2234181    9.2234181    9.2234181    27.402508 
   21600    304.12153    -10533.52            0   -9627.8977   -5533.9546    784.89248    9.2243702    9.2243702    9.2243702    26.914782 
   21700    296.40594   -10510.322            0   -9627.6757    1893.3307    784.61143    9.2232691    9.2232691    9.2232691    25.461199 
   21800    307.67259   -10542.989            0   -9626.7929   -8699.9064     784.0468    9.2210561    9.2210561    9.2210561    27.893519 
   21900     304.9308   -10533.044            0   -9625.0118    291.01585     783.2337    9.2178674    9.2178674    9.2178674     25.16046 
   22000    290.80384   -10489.599            0    -9623.635   -1515.2746    782.41249    9.2146446    9.2146446    9.2146446    25.969187 
Loop time of 37.7214 on 16 procs for 1000 steps with 1000 atoms

Performance: 2.290 ns/day, 10.478 hours/ns, 26.510 timesteps/s
94.1% CPU use with 16 MPI tasks x no OpenMP threads

MPI task timing breakdown:
Section |  min time  |  avg time  |  max time  |%varavg| %total
---------------------------------------------------------------
Pair    | 1.6541     | 1.7344     | 1.8201     |   3.5 |  4.60
Neigh   | 0.59445    | 0.60858    | 0.64122    |   1.5 |  1.61
Comm    | 0.41339    | 0.50828    | 0.60268    |   7.5 |  1.35
Output  | 22.988     | 23.731     | 34.842     |  58.9 | 62.91
Modify  | 0.020618   | 11.132     | 11.876     |  86.0 | 29.51
Other   |            | 0.006839   |            |       |  0.02

Nlocal:    62.5 ave 70 max 57 min
Histogram: 3 1 2 2 1 3 1 1 1 1
Nghost:    1846.38 ave 1853 max 1827 min
Histogram: 1 0 0 0 1 0 4 3 2 5
Neighs:    0 ave 0 max 0 min
Histogram: 16 0 0 0 0 0 0 0 0 0
FullNghs:  18860.1 ave 21033 max 17099 min
Histogram: 2 2 1 2 2 3 1 0 2 1

Total # of neighbors = 301762
Ave neighs/atom = 301.762
Neighbor list builds = 1000
Dangerous builds not checked
Setting up Verlet run ...
  Unit style    : real
  Current step  : 22000
  Time step     : 1
Per MPI rank memory allocation (min/avg/max) = 4.578 | 4.579 | 4.581 Mbytes
Step Temp E_pair E_mol TotEng Press Volume Lx Ly Lz S/CPU 
   22000    290.80384   -10489.599            0    -9623.635   -1515.2746    782.41249    9.2146446    9.2146446    9.2146446            0 
   22100    291.97242    -10491.09            0    -9621.646   -7652.5489     781.2232    9.2099734    9.2099734    9.2099734    22.699332 
   22200    299.84571   -10512.048            0   -9619.1589   -13471.435    779.86286    9.2046246    9.2046246    9.2046246    25.066765 
   22300    302.28267   -10518.111            0   -9617.9644   -13376.995    777.80426    9.1965183    9.1965183    9.1965183    24.218098 
   22400    295.45306   -10495.935            0   -9616.1266    13029.512    775.06079    9.1856929    9.1856929    9.1856929    26.814411 
   22500    304.07369   -10518.222            0   -9612.7427    19253.323    772.49609    9.1755498    9.1755498    9.1755498     25.87207 
   22600    298.55724   -10498.947            0   -9609.8948    11799.862    770.74471    9.1686104    9.1686104    9.1686104    26.473741 
   22700    314.75524    -10545.39            0   -9608.1026    1465.0578    769.94386    9.1654337    9.1654337    9.1654337    28.461872 
   22800    304.08397    -10510.95            0   -9605.4399    10237.518    769.68883    9.1644216    9.1644216    9.1644216    24.734997 
   22900     305.4254   -10514.226            0   -9604.7208    3550.0405     770.7297    9.1685509    9.1685509    9.1685509    23.184059 
   23000    304.38105   -10510.979            0   -9604.5847    14428.047    772.45246    9.1753771    9.1753771    9.1753771    23.250686 
Loop time of 40.0664 on 16 procs for 1000 steps with 1000 atoms

Performance: 2.156 ns/day, 11.130 hours/ns, 24.959 timesteps/s
94.1% CPU use with 16 MPI tasks x no OpenMP threads

MPI task timing breakdown:
Section |  min time  |  avg time  |  max time  |%varavg| %total
---------------------------------------------------------------
Pair    | 1.7116     | 1.7781     | 1.9196     |   3.2 |  4.44
Neigh   | 0.59215    | 0.61181    | 0.66526    |   2.1 |  1.53
Comm    | 0.3409     | 0.53547    | 0.62317    |   7.9 |  1.34
Output  | 24.357     | 25.157     | 37.112     |  61.5 | 62.79
Modify  | 0.020763   | 11.977     | 12.777     |  89.2 | 29.89
Other   |            | 0.006927   |            |       |  0.02

Nlocal:    62.5 ave 70 max 59 min
Histogram: 4 3 2 2 2 0 2 0 0 1
Nghost:    1865.94 ave 1890 max 1846 min
Histogram: 3 1 2 1 1 2 2 3 0 1
Neighs:    0 ave 0 max 0 min
Histogram: 16 0 0 0 0 0 0 0 0 0
FullNghs:  19096.5 ave 21596 max 17747 min
Histogram: 2 3 4 2 1 1 2 0 0 1

Total # of neighbors = 305544
Ave neighs/atom = 305.544
Neighbor list builds = 1000
Dangerous builds not checked
Setting up Verlet run ...
  Unit style    : real
  Current step  : 23000
  Time step     : 1
Per MPI rank memory allocation (min/avg/max) = 4.578 | 4.579 | 4.581 Mbytes
Step Temp E_pair E_mol TotEng Press Volume Lx Ly Lz S/CPU 
   23000    304.38105   -10510.979            0   -9604.5847    14428.047    772.45246    9.1753771    9.1753771    9.1753771            0 
   23100    311.83767   -10536.149            0   -9607.5495   -238.62311    774.94963    9.1852537    9.1852537    9.1852537    24.322776 
   23200    284.27297   -10454.437            0   -9607.9208     1961.824    777.91781    9.1969658    9.1969658    9.1969658    25.225562 
   23300     289.2475   -10470.217            0   -9608.8873   -7100.9785    781.03597    9.2092376    9.2092376    9.2092376    24.371274 
   23400    312.52712   -10541.719            0   -9611.0669   -964.05493    783.97521    9.2207754    9.2207754    9.2207754    25.181061 
   23500    282.02314   -10449.958            0   -9610.1417     -13154.2    786.61377    9.2311083    9.2311083    9.2311083    23.191606 
   23600    287.84501   -10466.632            0   -9609.4782   -6497.0415    788.69567     9.239245     9.239245     9.239245    23.897164 
   23700     292.9812   -10482.152            0   -9609.7038   -9743.3055    790.34047    9.2456633    9.2456633    9.2456633    23.023689 
   23800    290.48387   -10473.361            0   -9608.3496   -14525.858    791.85534    9.2515667    9.2515667    9.2515667    19.826002 
   23900    301.33199   -10501.234            0   -9603.9186   -14236.588    792.54098    9.2542361    9.2542361    9.2542361    24.117705 
   24000    297.54935   -10484.192            0   -9598.1413   -11933.884    791.88184    9.2516699    9.2516699    9.2516699    22.865374 
Loop time of 42.5536 on 16 procs for 1000 steps with 1000 atoms

Performance: 2.030 ns/day, 11.820 hours/ns, 23.500 timesteps/s
94.0% CPU use with 16 MPI tasks x no OpenMP threads

MPI task timing breakdown:
Section |  min time  |  avg time  |  max time  |%varavg| %total
---------------------------------------------------------------
Pair    | 1.6325     | 1.7277     | 1.8298     |   3.5 |  4.06
Neigh   | 0.58056    | 0.60833    | 0.66606    |   2.4 |  1.43
Comm    | 0.37145    | 0.53122    | 0.65553    |   8.5 |  1.25
Output  | 26.187     | 27.032     | 39.658     |  62.7 | 63.53
Modify  | 0.021163   | 12.647     | 13.492     |  91.7 | 29.72
Other   |            | 0.006872   |            |       |  0.02

Nlocal:    62.5 ave 68 max 56 min
Histogram: 1 0 0 5 1 2 2 2 2 1
Nghost:    1829.5 ave 1837 max 1824 min
Histogram: 2 3 0 5 0 2 1 0 1 2
Neighs:    0 ave 0 max 0 min
Histogram: 16 0 0 0 0 0 0 0 0 0
FullNghs:  18643.6 ave 20216 max 16696 min
Histogram: 1 0 2 4 0 2 2 2 2 1

Total # of neighbors = 298298
Ave neighs/atom = 298.298
Neighbor list builds = 1000
Dangerous builds not checked
Setting up Verlet run ...
  Unit style    : real
  Current step  : 24000
  Time step     : 1
Per MPI rank memory allocation (min/avg/max) = 4.578 | 4.579 | 4.581 Mbytes
Step Temp E_pair E_mol TotEng Press Volume Lx Ly Lz S/CPU 
   24000    297.54935   -10484.192            0   -9598.1413   -11933.884    791.88184    9.2516699    9.2516699    9.2516699            0 
   24100     308.6349    -10511.19            0   -9592.1275   -8888.1531    789.98557    9.2442792    9.2442792    9.2442792    28.278357 
   24200    315.77825   -10524.001            0   -9583.6672   -4071.1506    787.67231    9.2352472    9.2352472    9.2352472     27.50382 
   24300    306.14727   -10487.155            0   -9575.5008   -8082.2823    785.42853    9.2264696    9.2264696    9.2264696    23.235953 
   24400    298.86734   -10457.534            0   -9567.5585    -3534.334    782.83765    9.2163134    9.2163134    9.2163134    26.862372 
   24500    308.87586   -10482.621            0   -9562.8412    1044.1684    780.06599    9.2054237    9.2054237    9.2054237    29.355894 
   24600    303.69789   -10462.098            0   -9557.7375    2559.8714    777.61364     9.195767     9.195767     9.195767    25.863768 
   24700    308.45794   -10473.883            0   -9555.3481    24290.874    775.63039    9.1879426    9.1879426    9.1879426    29.462467 
   24800    311.30414   -10481.809            0   -9554.7987     33041.31    775.09957    9.1858461    9.1858461    9.1858461    28.030757 
   24900    296.95652   -10440.994            0   -9556.7077     7195.738    776.25994    9.1904278    9.1904278    9.1904278    28.657235 
   25000    298.97776   -10454.386            0   -9564.0814     4447.301    778.61085    9.1996962    9.1996962    9.1996962    23.671302 
Loop time of 37.1471 on 16 procs for 1000 steps with 1000 atoms

Performance: 2.326 ns/day, 10.319 hours/ns, 26.920 timesteps/s
94.1% CPU use with 16 MPI tasks x no OpenMP threads

MPI task timing breakdown:
Section |  min time  |  avg time  |  max time  |%varavg| %total
---------------------------------------------------------------
Pair    | 1.6637     | 1.7447     | 1.8102     |   3.3 |  4.70
Neigh   | 0.59247    | 0.60936    | 0.65872    |   2.0 |  1.64
Comm    | 0.4106     | 0.52532    | 0.62327    |   7.7 |  1.41
Output  | 22.908     | 23.619     | 34.239     |  56.4 | 63.58
Modify  | 0.020701   | 10.642     | 11.353     |  84.1 | 28.65
Other   |            | 0.006875   |            |       |  0.02

Nlocal:    62.5 ave 71 max 53 min
Histogram: 1 0 0 2 1 6 5 0 0 1
Nghost:    1857.62 ave 1875 max 1835 min
Histogram: 2 0 1 2 0 3 2 2 2 2
Neighs:    0 ave 0 max 0 min
Histogram: 16 0 0 0 0 0 0 0 0 0
FullNghs:  18953 ave 21634 max 16032 min
Histogram: 1 0 0 2 2 7 3 0 0 1

Total # of neighbors = 303248
Ave neighs/atom = 303.248
Neighbor list builds = 1000
Dangerous builds not checked
Setting up Verlet run ...
  Unit style    : real
  Current step  : 25000
  Time step     : 1
Per MPI rank memory allocation (min/avg/max) = 4.578 | 4.579 | 4.581 Mbytes
Step Temp E_pair E_mol TotEng Press Volume Lx Ly Lz S/CPU 
   25000    298.97776   -10454.386            0   -9564.0814     4447.301    778.61085    9.1996962    9.1996962    9.1996962            0 
   25100    305.13662   -10484.203            0   -9575.5578   -5612.3981    781.73592    9.2119879    9.2119879    9.2119879    24.504274 
   25200    293.06764    -10460.56            0   -9587.8542     6441.632    785.25277    9.2257814    9.2257814    9.2257814    25.544557 
   25300    300.80113   -10498.866            0   -9603.1316   -6661.3098    788.97593    9.2403393    9.2403393    9.2403393    21.506818 
   25400    296.32082   -10496.991            0    -9614.598   -34585.625    792.43389    9.2538193    9.2538193    9.2538193     27.80472 
   25500    296.73852   -10506.845            0   -9623.2086   -18401.926    794.62883    9.2623554    9.2623554    9.2623554    26.637536 
   25600    283.03071   -10470.582            0    -9627.765   -39628.179    795.24805    9.2647607    9.2647607    9.2647607    23.828286 
   25700    287.27236   -10486.687            0    -9631.239   -18075.676    793.95061    9.2597195    9.2597195    9.2597195    25.316859 
   25800    292.79017   -10505.763            0   -9633.8841   -16565.592    790.97574    9.2481398    9.2481398    9.2481398    26.086002 
   25900    298.36662   -10523.077            0   -9634.5927   -13004.415    786.43991    9.2304282    9.2304282    9.2304282    26.326247 
   26000    291.65157   -10502.519            0     -9634.03   -12086.574    780.97924    9.2090146    9.2090146    9.2090146    24.743983 
Loop time of 39.816 on 16 procs for 1000 steps with 1000 atoms

Performance: 2.170 ns/day, 11.060 hours/ns, 25.116 timesteps/s
94.1% CPU use with 16 MPI tasks x no OpenMP threads

MPI task timing breakdown:
Section |  min time  |  avg time  |  max time  |%varavg| %total
---------------------------------------------------------------
Pair    | 1.6193     | 1.7051     | 1.7968     |   4.0 |  4.28
Neigh   | 0.58679    | 0.60657    | 0.66477    |   2.3 |  1.52
Comm    | 0.38315    | 0.53277    | 0.63774    |   9.1 |  1.34
Output  | 24.972     | 25.723     | 36.943     |  57.1 | 64.61
Modify  | 0.020909   | 11.241     | 11.993     |  86.4 | 28.23
Other   |            | 0.006858   |            |       |  0.02

Nlocal:    62.5 ave 66 max 54 min
Histogram: 1 0 0 1 0 2 3 3 0 6
Nghost:    1858.06 ave 1875 max 1841 min
Histogram: 1 2 1 2 0 5 1 2 1 1
Neighs:    0 ave 0 max 0 min
Histogram: 16 0 0 0 0 0 0 0 0 0
FullNghs:  18888 ave 19914 max 16139 min
Histogram: 1 0 0 1 0 1 2 5 0 6

Total # of neighbors = 302208
Ave neighs/atom = 302.208
Neighbor list builds = 1000
Dangerous builds not checked
Setting up Verlet run ...
  Unit style    : real
  Current step  : 26000
  Time step     : 1
Per MPI rank memory allocation (min/avg/max) = 4.578 | 4.579 | 4.581 Mbytes
Step Temp E_pair E_mol TotEng Press Volume Lx Ly Lz S/CPU 
   26000    291.65157   -10502.519            0     -9634.03   -12086.574    780.97924    9.2090146    9.2090146    9.2090146            0 
   26100    295.50278   -10511.439            0   -9631.4823     7849.744    775.67763    9.1881291    9.1881291    9.1881291    27.488449 
   26200     305.0029   -10537.869            0   -9629.6224    20744.753    771.33066    9.1709332    9.1709332    9.1709332     27.81781 
   26300    304.95798   -10536.462            0   -9628.3497    11753.755    768.30273     9.158917     9.158917     9.158917    23.559666 
   26400    302.17865   -10526.164            0    -9626.328    6979.6743    766.56251    9.1519968    9.1519968    9.1519968    27.362217 
   26500    304.13846   -10531.303            0   -9625.6303    19012.074    765.95656    9.1495847    9.1495847    9.1495847    27.801677 
   26600    305.50126   -10535.305            0   -9625.5744    21714.954    766.68472    9.1524831    9.1524831    9.1524831    27.019568 
   26700    306.90176   -10540.547            0   -9626.6456    9672.1429    768.77403    9.1607895    9.1607895    9.1607895    24.600162 
   26800    312.15832   -10557.615            0   -9628.0607    10586.513    771.77423    9.1726909    9.1726909    9.1726909    26.363217 
   26900    290.37651   -10494.461            0   -9629.7689    5253.9412    774.88184    9.1849859    9.1849859    9.1849859    20.311184 
   27000      293.112   -10505.246            0   -9632.4089    -10304.59     777.7412    9.1962698    9.1962698    9.1962698    27.278844 
Loop time of 38.8773 on 16 procs for 1000 steps with 1000 atoms

Performance: 2.222 ns/day, 10.799 hours/ns, 25.722 timesteps/s
94.1% CPU use with 16 MPI tasks x no OpenMP threads

MPI task timing breakdown:
Section |  min time  |  avg time  |  max time  |%varavg| %total
---------------------------------------------------------------
Pair    | 1.703      | 1.7958     | 1.8998     |   3.6 |  4.62
Neigh   | 0.58985    | 0.6133     | 0.66194    |   2.1 |  1.58
Comm    | 0.38166    | 0.53412    | 0.64987    |   8.5 |  1.37
Output  | 23.813     | 24.572     | 35.906     |  59.0 | 63.20
Modify  | 0.020839   | 11.355     | 12.114     |  86.8 | 29.21
Other   |            | 0.006951   |            |       |  0.02

Nlocal:    62.5 ave 71 max 56 min
Histogram: 1 1 2 2 5 1 2 1 0 1
Nghost:    1864.19 ave 1875 max 1851 min
Histogram: 2 2 0 0 0 5 2 1 1 3
Neighs:    0 ave 0 max 0 min
Histogram: 16 0 0 0 0 0 0 0 0 0
FullNghs:  18961.8 ave 21472 max 16990 min
Histogram: 1 1 2 4 3 1 1 2 0 1

Total # of neighbors = 303388
Ave neighs/atom = 303.388
Neighbor list builds = 1000
Dangerous builds not checked
Setting up Verlet run ...
  Unit style    : real
  Current step  : 27000
  Time step     : 1
Per MPI rank memory allocation (min/avg/max) = 4.578 | 4.579 | 4.581 Mbytes
Step Temp E_pair E_mol TotEng Press Volume Lx Ly Lz S/CPU 
   27000      293.112   -10505.246            0   -9632.4089    -10304.59     777.7412    9.1962698    9.1962698    9.1962698            0 
   27100    288.72668   -10494.513            0   -9634.7342   -10901.921    779.78634    9.2043235    9.2043235    9.2043235    23.915976 
   27200    290.85984   -10503.695            0   -9637.5638   -16629.866    781.12783    9.2095986    9.2095986    9.2095986    21.696441 
   27300     290.5077   -10505.156            0   -9640.0737    2822.2043    781.85212    9.2124443    9.2124443    9.2124443    27.539601 
   27400    303.71509   -10544.973            0   -9640.5614    3980.3803     782.1454     9.213596     9.213596     9.213596    26.095881 
   27500    303.04377    -10542.66            0   -9640.2469   -8013.3012    782.25671     9.214033     9.214033     9.214033    25.420889 
   27600    295.37887    -10517.43            0    -9637.842    7310.5238      782.123     9.213508     9.213508     9.213508     25.24465 
   27700    285.96666   -10485.602            0   -9634.0421   -12070.423     782.1742    9.2137091    9.2137091    9.2137091     25.70136 
   27800    286.84789   -10484.087            0   -9629.9027    1180.0705    782.26883    9.2140806    9.2140806    9.2140806     25.76181 
   27900    302.34906   -10525.197            0   -9624.8535    5079.1951    782.32726      9.21431      9.21431      9.21431     28.20312 
   28000    303.48469   -10520.699            0    -9616.973    6264.3834    782.56536    9.2152447    9.2152447    9.2152447    26.495126 
Loop time of 39.2411 on 16 procs for 1000 steps with 1000 atoms

[...]
  931700    298.85526    -11238.83            0    -10348.89   -10390.441    792.09946    9.2525173    9.2525173    9.2525173    47.052917 
  931800    293.01373   -11226.245            0     -10353.7   -12076.987     793.3028    9.2572004    9.2572004    9.2572004    41.788894 
  931900    301.45376   -11258.346            0   -10360.668   -12088.029    793.82791    9.2592424    9.2592424    9.2592424     32.85426 
  932000    299.66262   -11259.923            0   -10367.579   -7184.6209    793.56781    9.2582311    9.2582311    9.2582311    37.111846 
  932100    300.12534   -11269.237            0   -10375.515   -3033.1294    792.73774    9.2550019    9.2550019    9.2550019    34.796091 
  932200    298.73875   -11273.531            0   -10383.938   -1231.7512     791.6494    9.2507646    9.2507646    9.2507646    44.571875 
  932300     305.3291    -11302.44            0   -10393.222   -4460.9629    790.38825    9.2458496    9.2458496    9.2458496    39.918103 
  932400    295.59759   -11281.503            0   -10401.264   -5111.5066    789.04485    9.2406083    9.2406083    9.2406083    47.210103 
  932500     288.6625   -11268.969            0   -10409.381     8067.529    787.71923    9.2354306    9.2354306    9.2354306    29.756425 
  932600    296.62863   -11302.219            0   -10418.909    6475.2555    786.92743    9.2323351    9.2323351    9.2323351    40.347401 
  932700    282.01325     -11264.7            0   -10424.912    6466.4801    786.89643    9.2322139    9.2322139    9.2322139    30.259845 
  932800     298.7319   -11322.114            0   -10432.541    8058.9722    787.59732    9.2349542    9.2349542    9.2349542    35.519985 
  932900     279.2376   -11267.892            0   -10436.371   -1894.1998    788.87512    9.2399457    9.2399457    9.2399457    38.954302 
  933000    288.63707   -11300.862            0    -10441.35    1815.7175    790.22887    9.2452281    9.2452281    9.2452281    43.576575 
  933100    291.58035   -11313.372            0   -10445.096     -6942.91    791.47221    9.2500744    9.2500744    9.2500744    42.493822 
  933200    286.51932   -11298.506            0     -10445.3   -2291.8354    792.22076    9.2529896    9.2529896    9.2529896    37.023741 
  933300    287.91602   -11300.388            0   -10443.023   -6101.3083    792.29654    9.2532846    9.2532846    9.2532846    46.418385 
  933400    298.32456   -11326.161            0   -10437.801   -11512.645    791.75538    9.2511774    9.2511774    9.2511774    37.019656 
  933500    285.72938   -11275.716            0   -10424.862   -4644.5355     790.6262    9.2467773    9.2467773    9.2467773    45.504717 
  933600    293.18072   -11282.322            0    -10409.28    5898.9251     789.2521    9.2414173    9.2414173    9.2414173    41.383604 
  933700     302.1331   -11291.229            0   -10391.528    4069.5753    788.15178    9.2371207    9.2371207    9.2371207    35.017082 
  933800    292.88317   -11249.141            0   -10376.985    8650.1307    787.53664     9.234717     9.234717     9.234717    47.515009 
  933900    307.63717    -11283.54            0   -10367.449    5913.2276    787.56767    9.2348382    9.2348382    9.2348382    42.268274 
  934000     300.3378   -11253.087            0   -10358.733    14370.954      788.318    9.2377701    9.2377701    9.2377701    28.608781 
  934100    289.45989   -11213.506            0   -10351.544    5229.8679    789.65318    9.2429825    9.2429825    9.2429825    37.105155 
  934200    305.83981   -11257.309            0    -10346.57    2014.0938    791.27954    9.2493237    9.2493237    9.2493237     41.80483 
  934300    316.89964   -11288.262            0   -10344.589   -9793.5766    792.78536    9.2551872    9.2551872    9.2551872     45.23684 
  934400    304.21714   -11247.251            0   -10341.345   -6245.2466     793.9015    9.2595285    9.2595285    9.2595285    42.429864 
  934500    308.44674   -11258.349            0   -10339.847   -18137.539    794.40468    9.2614844    9.2614844    9.2614844    33.191845 
  934600    302.41436   -11240.161            0   -10339.622   -13735.987    794.14146    9.2604614    9.2604614    9.2604614    41.393979 
  934700    295.35826   -11218.801            0   -10339.275     -7738.72    793.24012    9.2569565    9.2569565    9.2569565    43.138612 
  934800    289.95524   -11202.582            0   -10339.145   -284.17084    791.89257    9.2517117    9.2517117    9.2517117    49.168541 
  934900    301.43872   -11238.757            0   -10341.124    5537.1939    790.56044     9.246521     9.246521     9.246521    40.433867 
  935000    297.48896   -11229.356            0   -10343.485    5612.2641     789.5526      9.24259      9.24259      9.24259    44.016711 
  935100    293.18384   -11220.134            0   -10347.083     3485.208    788.96585    9.2402999    9.2402999    9.2402999    45.808362 
  935200    306.73235   -11266.553            0   -10353.156   -3232.4573    788.64072    9.2390305    9.2390305    9.2390305    54.148045 
  935300    299.45914   -11252.295            0   -10360.557    4313.8938     788.4785    9.2383969    9.2383969    9.2383969    32.238097 
  935400    296.68692   -11251.803            0    -10368.32     369.2045    788.66298    9.2391174    9.2391174    9.2391174    37.094918 
  935500    298.85864   -11267.767            0   -10377.817    9104.4223    789.37881    9.2419118    9.2419118    9.2419118    49.112434 
  935600    290.54072     -11250.7            0   -10385.519    -3034.696    790.54918    9.2464771    9.2464771    9.2464771    39.039155 
  935700    299.74566   -11286.863            0   -10394.272   -6988.1783    791.66066    9.2508085    9.2508085    9.2508085    39.754154 
  935800    286.04585   -11253.305            0   -10401.509   -11964.636    792.36641    9.2535566    9.2535566    9.2535566    48.274256 
  935900    288.61667   -11267.035            0   -10407.584   -7432.4488    792.50218    9.2540851    9.2540851    9.2540851    40.148601 
  936000     284.9378   -11260.098            0   -10411.601   -4545.4237     792.1612    9.2527577    9.2527577    9.2527577    44.887834 
  936100     282.9114    -11257.03            0   -10414.568   -7559.6651    791.41431    9.2498488    9.2498488    9.2498488    49.544762 
  936200     293.7553   -11290.678            0   -10415.925   -8061.6995     790.3401    9.2456619    9.2456619    9.2456619    42.933872 
  936300    300.23173   -11309.835            0   -10415.796   -149.14313    789.08718    9.2407736    9.2407736    9.2407736    44.696131 
  936400    299.35207   -11303.733            0   -10412.314    6275.3192    788.04809    9.2367156    9.2367156    9.2367156    41.470433 
  936500    292.64472   -11277.542            0   -10406.096    6587.5465    787.38719    9.2341328    9.2341328    9.2341328    43.024952 
  936600    292.82652   -11269.527            0    -10397.54    11509.516     787.2335    9.2335319    9.2335319    9.2335319    36.018758 
  936700    304.36092   -11289.865            0    -10383.53    7697.8494    787.76884    9.2356245    9.2356245    9.2356245    41.045045 
  936800    299.89124   -11257.899            0   -10364.874    6377.6463    789.01272    9.2404829    9.2404829    9.2404829    39.682258 
  936900    317.40372   -11294.211            0   -10349.036    2195.2809      790.752    9.2472677    9.2472677    9.2472677    38.483762 
  937000    308.97654   -11256.325            0   -10336.245   -7853.9131    792.69474    9.2548345    9.2548345    9.2548345    29.154364 
  937100    304.72295   -11235.326            0   -10327.913   -12673.716    794.45561    9.2616823    9.2616823    9.2616823    56.057734 
  937200    309.35343   -11243.845            0   -10322.644   -15539.088    795.55644    9.2659581    9.2659581    9.2659581    39.218694 
  937300    307.07886   -11233.875            0   -10319.446   -9312.2468    795.75038     9.266711     9.266711     9.266711    34.673847 
  937400    312.58277   -11250.304            0   -10319.486   -10179.268    795.05192    9.2639989    9.2639989    9.2639989    39.216348 
  937500     309.5934   -11241.711            0   -10319.795    -3477.037    793.52418    9.2580613    9.2580613    9.2580613    45.905413 
  937600    306.07912   -11234.668            0   -10323.216    3481.9228    791.54773    9.2503685    9.2503685    9.2503685    35.388561 
  937700    317.91576   -11274.781            0   -10328.083    2129.0844    789.56827    9.2426512    9.2426512    9.2426512    38.840863 
  937800    292.60687   -11203.166            0   -10331.833    13123.042    787.98007    9.2364499    9.2364499    9.2364499    36.640562 
  937900     304.1207   -11246.917            0   -10341.298    18590.088    787.12654    9.2331137    9.2331137    9.2331137    42.599871 
  938000    303.93978   -11256.088            0   -10351.007    14519.893    787.37396    9.2340811    9.2340811    9.2340811    41.613177 
  938100     311.5171    -11291.56            0   -10363.915    9047.9755    788.79858    9.2396469    9.2396469    9.2396469    43.936337 
  938200    299.19359   -11263.733            0   -10372.785   -3576.6675     790.9625    9.2480882    9.2480882    9.2480882    38.317695 
  938300    312.33877   -11312.553            0   -10382.462   -9448.9351    793.16568    9.2566669    9.2566669    9.2566669    42.094913 
  938400    295.93343   -11267.989            0   -10386.749   -8777.3859     794.8397    9.2631746    9.2631746    9.2631746      44.7854 
  938500    295.51953   -11270.794            0   -10390.787   -18605.589    795.44848    9.2655389    9.2655389    9.2655389    34.410194 
  938600    300.14973     -11288.3            0   -10394.505   -20141.401    794.86329    9.2632662    9.2632662    9.2632662    37.147408 
  938700    296.20989   -11278.375            0   -10396.313   -5193.0087    793.09541    9.2563936    9.2563936    9.2563936    44.059141 
  938800    295.64688   -11277.438            0   -10397.052    2243.6391    790.68567    9.2470092    9.2470092    9.2470092    37.043273 
  938900    298.78191   -11286.105            0   -10396.384    8557.8804    788.03612    9.2366689    9.2366689    9.2366689     29.93675 
  939000    297.26166   -11280.735            0   -10395.541    12151.004    785.85198    9.2281275    9.2281275    9.2281275    44.623085 
  939100    299.90392   -11287.651            0   -10394.588    20322.522    784.66722    9.2234876    9.2234876    9.2234876     55.87855 
  939200    310.04621   -11316.539            0   -10393.275    26567.914    784.65836    9.2234529    9.2234529    9.2234529    43.956443 
  939300    299.62645   -11283.969            0   -10391.732    13382.186    786.00767    9.2287368    9.2287368    9.2287368    48.443303 
  939400    293.97113   -11265.422            0   -10390.026     11217.24    788.58795    9.2388244    9.2388244    9.2388244    39.701978 
  939500    295.77904   -11267.984            0   -10387.205    -11076.84    791.67447    9.2508622    9.2508622    9.2508622    37.964656 
  939600     304.6006   -11291.321            0   -10384.272   -13758.383    794.37757     9.261379     9.261379     9.261379    55.245125 
  939700    287.17738   -11232.441            0   -10377.276   -15683.742    796.19133    9.2684223    9.2684223    9.2684223    36.306486 
  939800    294.17353   -11244.336            0   -10368.338   -18732.161     796.7539    9.2706048    9.2706048    9.2706048    41.918331 
  939900    302.67573   -11254.647            0    -10353.33   -14928.365    795.80499     9.266923     9.266923     9.266923    45.522206 
  940000    307.26474   -11250.602            0    -10335.62   -7847.4513    793.63803    9.2585041    9.2585041    9.2585041    45.012975 
  940100    303.24469   -11221.321            0    -10318.31   -6146.2495    790.86165    9.2476952    9.2476952    9.2476952    36.757449 
  940200     301.7202   -11202.502            0   -10304.031    7440.5938    788.19424    9.2372866    9.2372866    9.2372866    39.437521 
  940300    315.41593     -11238.2            0   -10298.945    9124.5716    786.24969    9.2296839    9.2296839    9.2296839    43.951348 
  940400    313.80575   -11229.742            0   -10295.282    15078.634    785.59666    9.2271279    9.2271279    9.2271279    44.344348 
  940500    324.61259   -11263.949            0   -10297.308    21467.337    786.50958    9.2307008    9.2307008    9.2307008    44.080828 
  940600    307.07686   -11214.697            0   -10300.274    11045.225    789.06919    9.2407034    9.2407034    9.2407034    35.977553 
  940700     314.3745   -11243.773            0    -10307.62   -4201.5265    792.62974    9.2545816    9.2545816    9.2545816    43.333657 
  940800    295.14557   -11192.294            0   -10313.401   -15946.074    796.20231    9.2684649    9.2684649    9.2684649    38.035227 
  940900    299.10683   -11210.817            0   -10320.128   -20433.085    798.82135    9.2786164    9.2786164    9.2786164    36.234536 
  941000     301.6786   -11226.611            0   -10328.264    -9231.544     799.9166    9.2828551    9.2828551    9.2828551    48.921355 
  941100    301.36764   -11234.536            0   -10337.115   -14302.423     799.2183    9.2801531    9.2801531    9.2801531    41.472148 
  941200    305.74859   -11256.399            0   -10345.932   -19667.657    796.70799    9.2704267    9.2704267    9.2704267    36.897862 
  941300    295.88571   -11234.196            0   -10353.099   -7376.0386    792.94798      9.25582      9.25582      9.25582    33.647318 
  941400    299.72545   -11250.828            0   -10358.297    12932.767    788.86869    9.2399206    9.2399206    9.2399206    37.547858 
  941500    291.35497   -11231.064            0   -10363.459    23037.175    785.33303    9.2260957    9.2260957    9.2260957    43.100937 
  941600    305.50423   -11278.023            0   -10368.284    28975.841    783.10321    9.2173554    9.2173554    9.2173554    43.598638 
  941700     308.0967   -11290.979            0    -10373.52    26925.379    782.74506      9.21595      9.21595      9.21595    46.079305 
  941800    310.70485   -11304.572            0   -10379.346    21458.229    784.31902    9.2221231    9.2221231    9.2221231    44.180934 
  941900    295.37831   -11262.573            0   -10382.987    8896.8327    787.25107    9.2336006    9.2336006    9.2336006    42.155549 
  942000    297.76725   -11274.697            0   -10387.997    2274.1538    790.89051    9.2478076    9.2478076    9.2478076    46.015514 
  942100    292.47464   -11260.614            0   -10389.674   -18812.303    794.46575    9.2617217    9.2617217    9.2617217    44.946268 
  942200    290.73032   -11255.946            0     -10390.2   -22025.166    796.92635    9.2712736    9.2712736    9.2712736    40.034243 
  942300    311.19445    -11318.57            0   -10391.886   -22473.123    797.80596    9.2746834    9.2746834    9.2746834    45.804398 
  942400      294.686   -11266.877            0   -10389.353   -26693.587     796.8514    9.2709829    9.2709829    9.2709829     40.79856 
  942500    286.91007   -11241.128            0   -10386.759   -8594.6716     794.3963    9.2614518    9.2614518    9.2614518    42.698973 
  942600    303.08267   -11288.123            0   -10385.594    4750.9323    791.19809    9.2490063    9.2490063    9.2490063    46.541388 
  942700    298.51332   -11271.056            0   -10382.135    3393.5147    787.94865    9.2363271    9.2363271    9.2363271    39.430888 
  942800    294.60502   -11253.665            0   -10376.381    23397.562    785.40054      9.22636      9.22636      9.22636    42.180559 
  942900    301.14029    -11265.63            0   -10368.886      18584.4    784.20645    9.2216819    9.2216819    9.2216819    41.066861 
  943000    308.29773   -11277.261            0   -10359.203    31937.106    784.42333    9.2225319    9.2225319    9.2225319    48.818848 
  943100    307.41596   -11257.794            0   -10342.362    21038.134     786.1425    9.2292645    9.2292645    9.2292645    37.639923 
  943200    311.49894   -11250.674            0   -10323.084    12468.412     788.9209    9.2401244    9.2401244    9.2401244    43.949324 
  943300    321.63859     -11265.5            0   -10307.715     741.3456    792.15608    9.2527378    9.2527378    9.2527378    47.303751 
  943400    302.98235   -11197.521            0   -10295.291   -10746.912    795.22501    9.2646712    9.2646712    9.2646712    38.160411 
  943500     303.9751   -11194.133            0   -10288.947    -16615.01     797.5101    9.2735367    9.2735367    9.2735367    35.425505 
  943600    313.28716   -11218.725            0   -10285.809   -21324.828     798.5723    9.2776521    9.2776521    9.2776521    44.780012 
  943700    317.79168   -11231.936            0   -10285.607   -20604.188    798.10605    9.2758461    9.2758461    9.2758461    37.113614 
  943800    313.94432   -11223.369            0   -10288.496   -11465.768    796.34423    9.2690156    9.2690156    9.2690156    43.808091 
  943900     316.1623   -11235.399            0   -10293.921   -7418.9463    793.74777    9.2589308    9.2589308    9.2589308     39.52901 
  944000    306.18611   -11212.966            0   -10301.196   -748.35829    790.99062    9.2481978    9.2481978    9.2481978    44.648777 
  944100    308.87914   -11229.866            0   -10310.077    14968.998    788.70068    9.2392646    9.2392646    9.2392646    42.649438 
  944200    306.36392   -11232.343            0   -10320.043    14940.264     787.4321    9.2343083    9.2343083    9.2343083    43.001023 
  944300    305.67472   -11240.843            0   -10330.595    9372.1504    787.17189    9.2332911    9.2332911    9.2332911    34.784863 
  944400    305.54835   -11251.309            0   -10341.438    5915.2974    787.83202    9.2358714    9.2358714    9.2358714      38.5158 
  944500    295.67884   -11230.988            0   -10350.507    4154.7822    789.27254    9.2414971    9.2414971    9.2414971    49.586001 
  944600    301.41555   -11255.149            0   -10357.585    6017.2523    790.91005    9.2478838    9.2478838    9.2478838    40.512454 
  944700    299.44839   -11255.078            0   -10363.372   -5588.4646    792.46912    9.2539564    9.2539564    9.2539564    43.192926 
  944800    297.02243   -11253.012            0    -10368.53   -6424.7136    793.55018    9.2581625    9.2581625    9.2581625    45.826747 
  944900    302.53852   -11272.494            0   -10371.586   -14842.767    793.86599    9.2593905    9.2593905    9.2593905    50.077683 
  945000    299.64655   -11267.278            0   -10374.982   -1395.1554    793.32761    9.2572968    9.2572968    9.2572968     54.86143 
Loop time of 2596.46 on 16 procs for 100000 steps with 1000 atoms

Performance: 3.328 ns/day, 7.212 hours/ns, 38.514 timesteps/s
94.3% CPU use with 16 MPI tasks x no OpenMP threads

MPI task timing breakdown:
Section |  min time  |  avg time  |  max time  |%varavg| %total
---------------------------------------------------------------
Pair    | 155.04     | 160.75     | 209.2      |  99.6 |  6.19
Neigh   | 60.305     | 62.144     | 78.019     |  53.4 |  2.39
Comm    | 36.28      | 100.57     | 108.05     | 167.5 |  3.87
Output  | 1533.3     | 1579.7     | 2269.7     | 448.2 | 60.84
Modify  | 2.3992     | 692.59     | 739.06     | 677.1 | 26.67
Other   |            | 0.7083     |            |       |  0.03

Nlocal:    62.5 ave 66 max 57 min
Histogram: 1 2 0 0 1 2 2 5 2 1
Nghost:    1826.75 ave 1842 max 1811 min
Histogram: 2 0 0 2 3 3 2 3 0 1
Neighs:    0 ave 0 max 0 min
Histogram: 16 0 0 0 0 0 0 0 0 0
FullNghs:  18585.1 ave 19570 max 16762 min
Histogram: 1 2 0 0 1 1 3 0 6 2

Total # of neighbors = 297362
Ave neighs/atom = 297.362
Neighbor list builds = 100000
Dangerous builds not checked
Total wall time: 8:54:42
